[Molden Format]
[Molpro variables]
_NUMVAR=  709.0000000000000    
_EV2006= 0.3674930886769165E-01
_EV= 0.3674932534394180E-01
_KJOULE= 0.3808798324128737E-03
_KJOULE/MOL= 0.3808798324128737E-03
_CM= 0.4556335267302901E-05
_CM-1= 0.4556335267302901E-05
_KCAL= 0.1593601117815568E-02
_KCAL/MOL= 0.1593601117815568E-02
_KELVIN2006= 0.3166828861084835E-05
_KELVIN= 0.3166814820820034E-05
_HERTZ2006= 0.1519829850815779E-15
_HERTZ= 0.1519829846011223E-15
_HZ2006= 0.1519829850815779E-15
_HZ= 0.1519829846011223E-15
_TOA2006= 0.5291772490000000    
_TOA= 0.5291772090000000    
_TOANG2006= 0.5291772490000000    
_TOANG= 0.5291772090000000    
_TORAD= 0.1745329251994330E-01
_TOCM=  219474.6306700000    
_TODEBYE=  2.541580000000000    
_TOEV2006=  27.21139610000000    
_TOEV=  27.21138390000000    
_TOHERTZ2006=  6579683899900000.    
_TOHERTZ=  6579683920700000.    
_TOHZ2006=  6579683899900000.    
_TOHZ=  6579683920700000.    
_TOK2006=  315773.3000000000    
_TOK=  315774.7000000000    
_TOKCAL=  627.5096000000000    
_TOKELVIN2006=  315773.3000000000    
_TOKELVIN=  315774.7000000000    
_TOKJ=  2625.500000000000    
_TOKJOULE=  2625.500000000000    
_ANG2006=  1.889725988578923    
_ANG=  1.889726131421507    
_ANGSTROM2006=  1.889725988578923    
_ANGSTROM=  1.889726131421507    
_IGNORE_UNDEF=  2.000000000000000    
_STRICTCHECK=  0.000000000000000    
_SEW_ONEEL=  0.000000000000000    
_CPPDONE=FALSE
_DKROLL_DONE=  0.000000000000000    
_FOCKDONE=  0.000000000000000    
_GRADONE=FALSE
_HESSDONE=TRUE
_INTDONE=TRUE
_SCFDONE=FALSE
_MODUL_CUDA=FALSE
_MODUL_SLATER=FALSE
_MODUL_MRCC=FALSE
_MRCC_EXEC=
_FITC_AO_SAVED=FALSE
_FITC_MO_SAVED=FALSE
_SHARED_FS=TRUE
_LSTYP=SEWARD
_INTYP=INTS
_GEOMTYP=ZMAT
_GRADTYP=ALASKA
_DIRECT=FALSE
_SYNCM=  0.000000000000000    
_BASIS=CC-PVDZ
_ZORIENT=  1.000000000000000    
_NELEC=  16.00000000000000    
_SPIN=  0.000000000000000    
!SPIN=  0.000000000000000    
_OPTCONV= 0.4102181402171507E-03
_QSDSTEP=  0.000000000000000    
_QSDIRC=  0.000000000000000    
_PROGRAM=FREQ
_CPUSTEP=  0.000000000000000    
_SYSSTEP=  0.000000000000000    
_WALLSTEP= 0.1200000000000000    
!DFMP2=  0.000000000000000    
!DFSCF=  0.000000000000000    
!SCSGRD=  0.000000000000000    
_BASINP=  610.0000000000000    
_CPUTOT=  102.2300000000000    
_DFTEXFAC=  1.000000000000000    
_DMX= 0.1384599098587164E-05
_DMY= 0.2814179509791912    
_DMZ= 0.2822145301563928    
_FREQUENCIES= -781.5157479422753    
_EMP2= -78.15792799370573    
_ENERGR= -77.93162098147724    
_ENERGU= -78.20582089530288    
_ENERGY= -78.15792799370571    
_ENUC=  30.62931065518882    
_FREQSTEP=  37.00000000000000    
!RS2GRSTATE=  1.000000000000000    
!RS2GRSYM=  1.000000000000000    
_GRADENERG= -78.15792102320684    
_GRADEXFAC=  9999.000000000000    
_GRADMETHOD=TRUE
_GRADRECORD=  5200.100000000000    
_VIRIAL= 0.9410422137637403E-01
!GRID_FREEZE= -1.000000000000000    
_ITERATIONS=  0.000000000000000    
_LASTNELEC=  4.000000000000000    
_LASTSPIN=  0.000000000000000    
_LASTSYM=  1.000000000000000    
_MPP_PROG=  1.000000000000000    
_MSENERGY= -78.15792799370571    
_NPROC_MPP=  4.000000000000000    
_NPROC_SMP=  1.000000000000000    
_NUMSTEP=  0.000000000000000    
_OPTCONVMX= 0.2169201669102625E-03
_OPTCONVRMS= 0.3729255820155915E-04
_OPTGRAD= 0.2485216961884538E-03
_OPTGRADMX= 0.1509469220751797E-03
_OPTGRADRMS= 0.2259288147167761E-04
_OPTSTEP=  7.000000000000000    
_ORBITAL=  2143.200000000000    
_PI=  3.141592653589793    
!MCACT=  4.000000000000000    
!MCCLOSED=  6.000000000000000    
!MCFREEZE=  0.000000000000000    
!MCMS2=  0.000000000000000    
!MCNEL=  4.000000000000000    
!MCNSTSYM=  1.000000000000000    
!MCSTATE=  1.000000000000000    
!MCSYM=  1.000000000000000    
!MCWEIGHT=  1.000000000000000    
_SEIG_MIN= 0.4114729642290456E-02
_SEWPROP=TRUE
_STATUS=  1.000000000000000    
_SYSTOT=  7.460000000000000    
_VERSION=  2010001.000000000    
_WALLTOT=  353.8900000000000    
_ZPE= 0.3870347324264518E-01
_DATE=06-Sep-19
_LASTORB=MCSCF
_MACHINE=Linux-2.6.34-12-desktop/tt109(x86_64) 64 bit mpp version
_OUTPUT=/home/carlo/qm/combustion/barrierless/c2h4_c2h3_h/dist_2.6/molpro.xml
_PGROUP=C1
_TIME=02:13:54
_LIBMOL=/programs/molpro2010p/bin/../lib/
!SURFREC=  0.000000000000000    
!POLYREC=  0.000000000000000    
!DIPREC=  0.000000000000000    
!VSCFREC=  0.000000000000000    
!VCIREC=  0.000000000000000    
!PVCIREC=  0.000000000000000    
!VMP2REC=  0.000000000000000    
!VMCSCFREC=  0.000000000000000    
!GAREC=  0.000000000000000    
!SCFORB=  21002.00000000000    
!MCORB=  21432.00000000000    
!CIOCC=  10.00000000000000    
!CICORE=  2.000000000000000    
!CICLOS=  6.000000000000000    
!CIISTSYM=  1.000000000000000    
!CIISTMS2=  0.000000000000000    
!CIISTNEL=  12.00000000000000    
!NEWMOL=  0.000000000000000    
!NEWSYM=  0.000000000000000    
_SLFILES=slscratch
_NGSSTO=  9.000000000000000    
_SIN=SIN
_COS=COS
_TAN=TAN
_ACOS=ACOS
_ASIN=ASIN
_ATAN=ATAN
_COSH=COSH
_SINH=SINH
_TANH=TANH
_ABS=ABS
_MOD=MOD
_ERF=ERF
_REFC=REFC
_ERFC=ERFC
_HYPOT=HYPOT
_J0=J0
_J1=J1
_JN=JN
_GAMMA=GAMMA
_LGAMMA=LGAMMA
_Y0=Y0
_Y1=Y1
_YN=YN
_EXP=EXP
_LOG=LOG
_LOG10=LOG10
_SQRT=SQRT
_INT=INT
_NINT=NINT
_MAX=MAX
_MIN=MIN
_COSMO=  0.000000000000000    
_COSMOIT=  0.000000000000000    
_COSMOES=  0.000000000000000    
_COSMOEDS=  0.000000000000000    
_COSMOEC=  0.000000000000000    
_COSMOEDCORR=  0.000000000000000    
_FEPSI=  1.000000000000000    
_SL_IsMM=  0.000000000000000    
_SL_NSYM=  0.000000000000000    
_SL_System_BitSw=  0.000000000000000    
_SL_Unique_atoms=  0.000000000000000    
_SL_GRAD=  0.000000000000000    
_SL_MAXUPD_Hess=  5.000000000000000    
_SL_N_PRINT_COD=  5.000000000000000    
_SL_PRINT_CODES=  0.000000000000000    
_SL_BasType=  0.000000000000000    
_SL_Energy_Pred=  0.000000000000000    
_SL_New_Coords=  0.000000000000000    
_SL_Total_Nuclea=  0.000000000000000    
_SL_Highest_Mltp=  0.000000000000000    
_SL_Ref_Geom=  0.000000000000000    
!LATTICE= -1.000000000000000    
!NEWLATTICE=  0.000000000000000    
!LATGRAD_VAR=FALSE
!SEW_LATTICE=  1.000000000000000    
!LOCAL=  0.000000000000000    
!SAVEDOM= -1.000000000000000    
!RESTDOM= -1.000000000000000    
!SAVEDOM_HF= -1.000000000000000    
!RESTDOM_HF= -1.000000000000000    
!HESSREC=  5300.200000000000    
!FREQREC=  5400.200000000000    
!NMODREC=  5450.200000000000    
!GTASKS=  0.000000000000000    
!HTASKS=  5500.200000000000    
!THRCHG= 0.1000000000000000    
!DEBUG= -1.000000000000000    
!CFIT_CPHF=  0.000000000000000    
!RDOMAUX_CPHF=  3.000000000000000    
!THRAO_CPHF= 0.1000000000000000E-09
!THRMO_CPHF= 0.1000000000000000E-09
!THROV_CPHF= 0.1000000000000000E-11
!THRSW_CPHF= 0.1000000000000000E-09
!THRPROD_CPHF= 0.1000000000000000E-09
!THRAOPR_CPHF= 0.1000000000000000E-11
!CFIT_SCFGRD=  0.000000000000000    
!RDOMAUX_SCFGRD=  5.000000000000000    
!THRAO_SCFGRD= 0.1000000000000000E-09
!THRMO_SCFGRD= 0.1000000000000000E-09
!THROV_SCFGRD= 0.1000000000000000E-11
!THRSW_SCFGRD= 0.1000000000000000E-09
!THRPROD_SCFGRD= 0.1000000000000000E-09
!THRAOPR_SCFGRD= 0.1000000000000000E-11
!LOCFIT_SCF=  0.000000000000000    
!LOCFIT_MP2= -1.000000000000000    
_RIDOM=  0.000000000000000    
!CC2_METHOD=  0.000000000000000    
_BASIS2006=FALSE
_SVDDEL= -1.000000000000000    
_SVDDELA= -1.000000000000000    
_SVDDELP= -1.000000000000000    
_SVDDELF= -1.000000000000000    
_SVDDELS= -1.000000000000000    
_SVDDEL_ABS= -1.000000000000000    
_SVDDELA_ABS= -1.000000000000000    
_SVDDELP_ABS= -1.000000000000000    
_SVDDELF_ABS= -1.000000000000000    
_SVDDELS_ABS= -1.000000000000000    
_MAXBASIS=  0.000000000000000    
!OPT_CONICAL=  0.000000000000000    
!CLEARSP_JGRID=  0.000000000000000    
RCC1=  1.333301341647209    
RCC2=  1.099557576116653    
RCC3=  1.093866361350643    
RCH2=  1.091050767573001    
ACCC1=  120.3858927810157    
AHCC1=  122.1006713348470    
AHCC2=  118.2396767645897    
AHCC3=  135.8856056640358    
B1=  179.9999207820111    
B2=  180.0004649029738    
B3=  180.0002839816811    
RCH1=  2.600000000000000    
GX1=-0.2060653827008897E-06
GY1= 0.3941340680395486    
GZ1= -1.138372369024500    
GX2= 0.1736321590986578E-06
GY2=-0.2246966103368314    
GZ2=  1.304024748553286    
GX3=-0.1191429260693877E-04
GY3=  1.254700709849631    
GZ3=  2.763098737386994    
GX4= 0.9881808487920852E-05
GY4= -2.191935150819687    
GZ4=  1.938774602611257    
GX5=-0.6105093595452505E-05
GY5= -3.230782058100329    
GZ5= -4.455054668617086    
GX6= 0.8524064458409957E-05
GY6=  2.148934704055464    
GZ6= -2.220796021739565    
C1X1=-0.2060653827001130E-06
C1Y1= 0.3941340680395486    
C1Z1= -1.138372369024500    
C2X2= 0.1736321590985190E-06
C2Y2=-0.2246966103368314    
C2Z2=  1.304024748553286    
H3X3=-0.1191429260693870E-04
H3Y3=  1.254700709849631    
H3Z3=  2.763098737386994    
H4X4= 0.9881808487920488E-05
H4Y4= -2.191935150819687    
H4Z4=  1.938774602611257    
H5X5=-0.6105093595451874E-05
H5Y5= -3.230782058100329    
H5Z5= -4.455054668617086    
H6X6= 0.8524064458410169E-05
H6Y6=  2.148934704055464    
H6Z6= -2.220796021739565    
CBSEN= -78.15792799370571    
[Atoms] Angs
C     1    6        -0.0000001090        0.2085667661       -0.6024007130
C     2    6         0.0000000919       -0.1189043251        0.6900601769
H     3    1        -0.0000063048        0.6639590198        1.4621688780
H     4    1         0.0000052292       -1.1599221254        1.0259553331
H     5    1        -0.0000032307       -1.7096562324       -2.3575133955
H     6    1         0.0000045107        1.1371672690       -1.1751946405
[GTO]
  1 0
 s    9  1.00
  0.6665000000D+04  0.6920001793D-03
  0.1000000000D+04  0.5329001381D-02
  0.2280000000D+03  0.2707700701D-01
  0.6471000000D+02  0.1017180264D+00
  0.2106000000D+02  0.2747400712D+00
  0.7495000000D+01  0.4485641162D+00
  0.2797000000D+01  0.2850740738D+00
  0.5215000000D+00  0.1520400394D-01
  0.1596000000D+00 -0.3191000827D-02
 s    9  1.00
  0.6665000000D+04 -0.1460000642D-03
  0.1000000000D+04 -0.1154000508D-02
  0.2280000000D+03 -0.5725002519D-02
  0.6471000000D+02 -0.2331201026D-01
  0.2106000000D+02 -0.6395502813D-01
  0.7495000000D+01 -0.1499810660D+00
  0.2797000000D+01 -0.1272620560D+00
  0.5215000000D+00  0.5445292395D+00
  0.1596000000D+00  0.5804962554D+00
 s    9  1.00
  0.6665000000D+04  0.0000000000D+00
  0.1000000000D+04  0.0000000000D+00
  0.2280000000D+03  0.0000000000D+00
  0.6471000000D+02  0.0000000000D+00
  0.2106000000D+02  0.0000000000D+00
  0.7495000000D+01  0.0000000000D+00
  0.2797000000D+01  0.0000000000D+00
  0.5215000000D+00  0.0000000000D+00
  0.1596000000D+00  0.1000000000D+01
 p    4  1.00
  0.9439000000D+01  0.3810902127D-01
  0.2002000000D+01  0.2094801169D+00
  0.5456000000D+00  0.5085572839D+00
  0.1517000000D+00  0.4688422617D+00
 p    4  1.00
  0.9439000000D+01  0.0000000000D+00
  0.2002000000D+01  0.0000000000D+00
  0.5456000000D+00  0.0000000000D+00
  0.1517000000D+00  0.1000000000D+01
 d    1  1.00
  0.5500000000D+00  0.1000000000D+01
  
  2 0
 s    9  1.00
  0.6665000000D+04  0.6920001793D-03
  0.1000000000D+04  0.5329001381D-02
  0.2280000000D+03  0.2707700701D-01
  0.6471000000D+02  0.1017180264D+00
  0.2106000000D+02  0.2747400712D+00
  0.7495000000D+01  0.4485641162D+00
  0.2797000000D+01  0.2850740738D+00
  0.5215000000D+00  0.1520400394D-01
  0.1596000000D+00 -0.3191000827D-02
 s    9  1.00
  0.6665000000D+04 -0.1460000642D-03
  0.1000000000D+04 -0.1154000508D-02
  0.2280000000D+03 -0.5725002519D-02
  0.6471000000D+02 -0.2331201026D-01
  0.2106000000D+02 -0.6395502813D-01
  0.7495000000D+01 -0.1499810660D+00
  0.2797000000D+01 -0.1272620560D+00
  0.5215000000D+00  0.5445292395D+00
  0.1596000000D+00  0.5804962554D+00
 s    9  1.00
  0.6665000000D+04  0.0000000000D+00
  0.1000000000D+04  0.0000000000D+00
  0.2280000000D+03  0.0000000000D+00
  0.6471000000D+02  0.0000000000D+00
  0.2106000000D+02  0.0000000000D+00
  0.7495000000D+01  0.0000000000D+00
  0.2797000000D+01  0.0000000000D+00
  0.5215000000D+00  0.0000000000D+00
  0.1596000000D+00  0.1000000000D+01
 p    4  1.00
  0.9439000000D+01  0.3810902127D-01
  0.2002000000D+01  0.2094801169D+00
  0.5456000000D+00  0.5085572839D+00
  0.1517000000D+00  0.4688422617D+00
 p    4  1.00
  0.9439000000D+01  0.0000000000D+00
  0.2002000000D+01  0.0000000000D+00
  0.5456000000D+00  0.0000000000D+00
  0.1517000000D+00  0.1000000000D+01
 d    1  1.00
  0.5500000000D+00  0.1000000000D+01
  
  3 0
 s    4  1.00
  0.1301000000D+02  0.1968498999D-01
  0.1962000000D+01  0.1379769298D+00
  0.4446000000D+00  0.4781477569D+00
  0.1220000000D+00  0.5012397451D+00
 s    4  1.00
  0.1301000000D+02  0.0000000000D+00
  0.1962000000D+01  0.0000000000D+00
  0.4446000000D+00  0.0000000000D+00
  0.1220000000D+00  0.1000000000D+01
 p    1  1.00
  0.7270000000D+00  0.1000000000D+01
  
  4 0
 s    4  1.00
  0.1301000000D+02  0.1968498999D-01
  0.1962000000D+01  0.1379769298D+00
  0.4446000000D+00  0.4781477569D+00
  0.1220000000D+00  0.5012397451D+00
 s    4  1.00
  0.1301000000D+02  0.0000000000D+00
  0.1962000000D+01  0.0000000000D+00
  0.4446000000D+00  0.0000000000D+00
  0.1220000000D+00  0.1000000000D+01
 p    1  1.00
  0.7270000000D+00  0.1000000000D+01
  
  5 0
 s    4  1.00
  0.1301000000D+02  0.1968498999D-01
  0.1962000000D+01  0.1379769298D+00
  0.4446000000D+00  0.4781477569D+00
  0.1220000000D+00  0.5012397451D+00
 s    4  1.00
  0.1301000000D+02  0.0000000000D+00
  0.1962000000D+01  0.0000000000D+00
  0.4446000000D+00  0.0000000000D+00
  0.1220000000D+00  0.1000000000D+01
 p    1  1.00
  0.7270000000D+00  0.1000000000D+01
  
  6 0
 s    4  1.00
  0.1301000000D+02  0.1968498999D-01
  0.1962000000D+01  0.1379769298D+00
  0.4446000000D+00  0.4781477569D+00
  0.1220000000D+00  0.5012397451D+00
 s    4  1.00
  0.1301000000D+02  0.0000000000D+00
  0.1962000000D+01  0.0000000000D+00
  0.4446000000D+00  0.0000000000D+00
  0.1220000000D+00  0.1000000000D+01
 p    1  1.00
  0.7270000000D+00  0.1000000000D+01
 
 
[MO]
 Sym=      1.1
 Ene=     -11.2571
 Spin= Alpha
 Occup=    2.000000
1 0.99957836068714
2 0.006456879689949
3 -0.007271840934741
4 0.000000037531544
5 0.001218820860232
6 0.000503575282112
7 -0.000000009531054
8 -0.000759350899341
9 -0.000804367948908
10 -0.000639044275118
11 0.000140657445895
12 0.000498386829223
13 0.000000004084089
14 -0.000000001920632
15 -0.001189714835352
16 0.054349610439925
17 -0.000897367593475
18 0.002059405342356
19 0.000000030564916
20 -0.000151267324672
21 0.000420238370055
22 -0.000000001162374
23 0.000829412588202
24 -0.001306625938340
25 0.000266822515863
26 0.000091050282723
27 -0.000357872798586
28 0.000000001534641
29 -0.000000001945569
30 -0.000439093523748
31 0.000185567051253
32 0.000050890215586
33 0.000000002932835
34 -0.000223116865673
35 -0.000143709418623
36 0.000016921324339
37 0.000710014774646
38 0.000000000438128
39 0.000002872071745
40 -0.000132878766742
41 -0.000400434801512
42 0.000242928741503
43 0.000000000202112
44 0.000073808871634
45 0.000078556013436
46 -0.001379663027202
47 0.002150965890641
48 0.000000005050174
49 0.000837487714482
50 -0.000130915848851
 Sym=      2.1
 Ene=     -11.2422
 Spin= Alpha
 Occup=    2.000000
1 -0.055384789047360
2 -0.001240178876457
3 0.002998500094630
4 -0.000000004679053
5 -0.000051629995344
6 -0.000380920841217
7 -0.000000000307260
8 -0.000425923394516
9 0.001217899979172
10 0.000344865344829
11 -0.000098129886067
12 -0.000246735458763
13 0.000000001211481
14 0.000000000818763
15 0.000177147366823
16 0.99993832843601
17 0.008465357062102
18 -0.009500964715114
19 -0.000000010419712
20 -0.000003512797729
21 -0.000029115822543
22 0.000000005161003
23 -0.000075558056429
24 0.000633310679492
25 -0.000738074616388
26 0.000262360313588
27 0.000475714302800
28 -0.000000006444390
29 -0.000000002288839
30 -0.000066231075430
31 -0.000564062838207
32 0.001471754957268
33 -0.000000003386237
34 0.000434412384695
35 0.000328784921442
36 -0.000564361320200
37 0.001529017767404
38 0.000000002504308
39 -0.000529183298862
40 0.000094511899909
41 0.000011720446034
42 -0.000022252608134
43 -0.000000000048479
44 -0.000006694747835
45 -0.000024479739816
46 0.000225221236090
47 0.000113459900589
48 -0.000000001776544
49 -0.000157751866748
50 0.000074497625679
 Sym=      3.1
 Ene=      -1.0196
 Spin= Alpha
 Occup=    2.000000
1 -0.017253841116908
2 0.56086843623093
3 -0.12648877448142
4 0.000001167391798
5 -0.003873412197141
6 0.23537011071746
7 -0.000000101683365
8 0.002152945081073
9 -0.060289944142910
10 -0.010388794087782
11 -0.010706591151125
12 0.021095385238907
13 0.000000003261578
14 0.000000067019772
15 -0.010161876511134
16 -0.023333891944538
17 0.65794442982897
18 -0.18838245751688
19 0.000000869958645
20 0.050563446481625
21 -0.17091526161272
22 0.000000016569593
23 -0.015240641603450
24 0.071016624463391
25 -0.007196524482061
26 -0.008660984281480
27 0.015857508763541
28 0.000000037253192
29 -0.000000044770815
30 -0.009706234863014
31 0.21078500454592
32 -0.10457354406578
33 0.000000132361363
34 -0.013021507512230
35 -0.015948142953566
36 0.21408143041603
37 -0.096916957516073
38 -0.000000071948440
39 0.018362120549614
40 -0.008286867240433
41 -0.004168319453239
42 -0.005232555818524
43 0.000000003047941
44 0.000114547384821
45 -0.000017209273478
46 0.16645821748066
47 -0.071198390975622
48 -0.000000029237190
49 -0.010557422008574
50 0.010550196680919
 Sym=      4.1
 Ene=      -0.7618
 Spin= Alpha
 Occup=    2.000000
1 -0.011187245233173
2 0.51829632306853
3 -0.091589642607724
4 0.000001994147199
5 0.22829620048649
6 -0.12441085656439
7 -0.000000293452823
8 -0.053087256501226
9 0.031874576498058
10 -0.002542565371591
11 0.007643075392096
12 -0.005100510020505
13 0.000000050183076
14 0.000000036043477
15 -0.004128031278609
16 0.011066810130481
17 -0.38098285877848
18 0.056550299369288
19 0.000001236828179
20 0.12815381220122
21 -0.27245160282470
22 -0.000000032754670
23 -0.027693334596335
24 0.061515830577719
25 0.000780823048056
26 -0.010072694945411
27 0.009291871897355
28 0.000000110258760
29 -0.000000049408412
30 -0.011155767703561
31 -0.28379614955704
32 0.099552613072173
33 -0.000000087215630
34 0.015453348401282
35 0.009202297881373
36 -0.35081778766017
37 0.13909591581388
38 0.000000150596809
39 -0.022168826978223
40 0.002311148806661
41 -0.005188763023881
42 -0.006804817654001
43 0.000000003908865
44 0.000192396777553
45 0.000125905458443
46 0.48606150207473
47 -0.18015142116727
48 -0.000000114771347
49 -0.024011996790088
50 0.015719070227033
 Sym=      5.1
 Ene=      -0.6148
 Spin= Alpha
 Occup=    2.000000
1 -0.002594660421525
2 -0.10668471802270
3 0.057963843975788
4 -0.000000030837119
5 0.32618612515931
6 -0.37876929626045
7 -0.000000099814879
8 -0.087414376348911
9 0.10133918740445
10 -0.000216617484114
11 0.009820825099388
12 -0.009604207615274
13 0.000000069868892
14 -0.000000136594493
15 0.007462711140248
16 -0.002912565991656
17 0.008798299217481
18 0.019083984658571
19 -0.000002402636821
20 0.22339626049504
21 0.54529313448810
22 0.000000377604950
23 -0.040825897465469
24 -0.11938565371830
25 -0.000879275807976
26 0.013172472934998
27 -0.012293197127022
28 -0.000000106658460
29 -0.000000103661750
30 0.012216171699158
31 0.53105881067429
32 -0.15658450795692
33 0.000000139356942
34 -0.018325040049524
35 -0.011689103353528
36 -0.033184427370389
37 0.014603491346375
38 -0.000000034168009
39 0.001558360420514
40 0.009718946537957
41 0.006953449504526
42 0.006059808638236
43 -0.000000000946097
44 0.000191182079583
45 -0.000194816382466
46 0.37218173209727
47 -0.11335433935760
48 -0.000000114218692
49 -0.014253051831563
50 0.004808946652341
 Sym=      6.1
 Ene=      -0.5756
 Spin= Alpha
 Occup=    2.000000
1 0.002424646307691
2 -0.032974390782697
3 -0.029267908974952
4 -0.000001059300308
5 -0.12274479836606
6 0.32481873629190
7 0.000000429209374
8 0.023713963186287
9 -0.093449019046516
10 0.001968777065051
11 -0.018335982770936
12 0.016367205705885
13 -0.000000031329384
14 -0.000000037954280
15 0.022445069078677
16 0.000832075349987
17 0.030493461529914
18 -0.009440817240052
19 -0.000002852918204
20 0.58524469877615
21 -0.15796780933947
22 0.000000754155028
23 -0.11496151972457
24 0.028541797672417
25 -0.000572516163732
26 -0.016629033673682
27 0.017201549837414
28 0.000000028247406
29 -0.000000059264607
30 0.015062941445865
31 0.33187668041952
32 -0.083737785125751
33 0.000000052643302
34 -0.001335616666551
35 -0.015449703009832
36 -0.59622171253628
37 0.16477487921149
38 0.000000098092282
39 -0.019814405531419
40 0.007684954978754
41 0.010854254279460
42 0.010102928938570
43 -0.000000000268307
44 -0.000013660952812
45 -0.000019103473595
46 -0.31459492793244
47 0.075758439511467
48 0.000000037855877
49 0.008763653262621
50 -0.003108774312400
 Sym=      7.1
 Ene=      -0.3692
 Spin= Alpha
 Occup=    1.901238
1 -0.000000006804095
2 -0.000004619991875
3 -0.000000268555830
4 0.60881511653918
5 0.000001720244763
6 0.000002355218194
7 -0.017172101247520
8 -0.000000339487394
9 0.000000050408548
10 -0.000000048465956
11 -0.000000057612084
12 0.000000106078040
13 -0.004035313148369
14 0.029194697009504
15 0.000000172968951
16 0.000000030244410
17 0.000000831923940
18 0.000000114114679
19 0.60286651328563
20 0.000003221008006
21 0.000001261761299
22 0.000412078550513
23 0.000000179504041
24 -0.000000077676509
25 -0.000000026107418
26 0.000000087782206
27 -0.000000061674788
28 0.007674947640101
29 -0.027340085987288
30 -0.000000020734822
31 0.000000362738083
32 -0.000000105875313
33 0.013307213344494
34 0.000000083701649
35 0.000000030495139
36 0.000000183866323
37 -0.000000304171300
38 0.013238200913683
39 0.000000106337187
40 0.000000009480030
41 -0.000000309575322
42 0.000000098332345
43 0.001098921201196
44 -0.000000016059455
45 -0.000000018286782
46 -0.000000056929933
47 0.000000087526379
48 0.014292032459027
49 -0.000000022205626
50 0.000000070840486
 Sym=      8.1
 Ene=      -0.2541
 Spin= Alpha
 Occup=    1.485346
1 -0.000889502281658
2 0.21101906598033
3 0.075599716584552
4 0.000003154267070
5 -0.43079686104280
6 -0.33469773339736
7 0.000000353494584
8 -0.026270469510883
9 -0.016701138569989
10 0.001296774683774
11 0.000340719264654
12 -0.001637493948428
13 -0.000000121401881
14 0.000000019090955
15 0.018725610867009
16 -0.001583628115035
17 -0.078791779425468
18 0.022850721483492
19 0.000001203409060
20 0.013543982039719
21 0.091029632999505
22 -0.000000029846250
23 0.044493147178370
24 -0.016827368579572
25 0.000708184220307
26 -0.010504741401213
27 0.009796557180906
28 0.000000042866492
29 -0.000000195579911
30 0.023583287961947
31 0.11642824729474
32 0.011679313994666
33 0.000000034467902
34 -0.000292223273065
35 0.000711637886983
36 -0.087482061737942
37 0.017688106511051
38 0.000000027235562
39 0.000530975937014
40 0.002285838722385
41 0.63924578241931
42 0.039366478131707
43 0.000000011777552
44 0.000309121696723
45 0.000152175756239
46 -0.14472231816973
47 0.018872995536620
48 0.000000094709086
49 -0.005668687405945
50 -0.008982692495959
 Sym=      9.1
 Ene=      -0.0398
 Spin= Alpha
 Occup=    0.514694
1 -0.001896811444273
2 -0.28247753225265
3 -0.11510685204237
4 -0.000003218990630
5 0.52440167282778
6 0.41867259776737
7 -0.000000316009206
8 0.035192701590704
9 0.000851756369762
10 0.000528005838146
11 -0.002095906325583
12 0.001567900487436
13 0.000000180218778
14 0.000000057812435
15 -0.026966211295225
16 0.000472146821177
17 0.078285714356570
18 -0.002324551560797
19 -0.000000249507718
20 -0.018839627760455
21 -0.10979698969814
22 0.000000219417589
23 -0.060634884051771
24 0.003248957021883
25 -0.002361170445970
26 0.012333875372497
27 -0.009972704926526
28 -0.000000050650129
29 0.000000202416831
30 -0.026100001131165
31 -0.13518082262792
32 -0.000447143323995
33 -0.000000014508814
34 0.000474922910600
35 0.000673907786640
36 0.091373341495770
37 -0.020207135994864
38 -0.000000003697651
39 -0.000992246944992
40 -0.003457825725541
41 0.80570781056698
42 -0.054771548115751
43 -0.000000000750301
44 -0.000572450506566
45 -0.000499420258635
46 0.15175138125741
47 -0.026040342804946
48 -0.000000089285822
49 0.006352051557716
50 0.009485457675864
 Sym=     10.1
 Ene=       0.2161
 Spin= Alpha
 Occup=    0.098722
1 -0.000000502023351
2 -0.000005074899479
3 -0.000000414360629
4 0.90264971326200
5 0.000000813992492
6 0.000002478146119
7 -0.050093338741068
8 -0.000000093400573
9 -0.000001751228523
10 -0.000001015885615
11 0.000000479381866
12 0.000000536503749
13 -0.007122113489546
14 -0.009690842983428
15 -0.000000360719525
16 -0.000000061338996
17 0.000000545931774
18 0.000001066327294
19 -0.85578165130897
20 -0.000004125737259
21 -0.000003186022748
22 0.009028316767902
23 0.000000326441357
24 -0.000000539887064
25 -0.000000183079607
26 0.000000043706142
27 0.000000139373465
28 0.002054250277982
29 -0.009750244855623
30 0.000000042984128
31 0.000000901454402
32 0.000000264507078
33 -0.011145871725017
34 -0.000000064467826
35 -0.000000071123818
36 -0.000000818679222
37 0.000000359826928
38 -0.011001378156743
39 -0.000000080611489
40 -0.000000027843163
41 0.000000149205843
42 0.000000313302417
43 -0.000622655800165
44 0.000000040984454
45 0.000000042619488
46 0.000002474734063
47 -0.000000527987674
48 0.011752929323865
49 -0.000000011907424
50 0.000000076118831
 Sym=     11.1
 Ene=       0.2096
 Spin= Alpha
 Occup=    0.000000
1 0.018294557953447
2 -0.056411105915021
3 -0.63259124814566
4 -0.000000780702794
5 -0.12750449428462
6 0.11647540281834
7 -0.000002450310899
8 -0.26767078447695
9 0.27053444458617
10 0.003865258349775
11 -0.004221011383785
12 0.000355753034010
13 -0.000000200932490
14 0.000000054423647
15 0.011939754358970
16 0.061402925115058
17 -0.15115217861688
18 -1.73503077735419
19 0.000000918322792
20 -0.025524792779416
21 -0.25198816411261
22 0.000002600064880
23 0.034955112360778
24 -0.50032323871358
25 0.021119398928777
26 -0.019724535757737
27 -0.001394863171041
28 0.000000302777438
29 0.000000109947001
30 0.001466455267773
31 0.032237867869734
32 1.45520845041363
33 0.000000110444439
34 -0.012530439114594
35 -0.015545290409276
36 0.036180761934241
37 0.98560182733682
38 -0.000000089113218
39 0.016419064574421
40 -0.006879688287939
41 -0.066072722643958
42 0.027946888827238
43 0.000000006553657
44 -0.000698138316691
45 0.006205151279752
46 -0.030234976664866
47 0.90642468438972
48 -0.000000075224749
49 -0.007043465643672
50 0.012409913812415
 Sym=     12.1
 Ene=       0.2231
 Spin= Alpha
 Occup=    0.000000
1 0.040210349068807
2 -0.15496139304515
3 -1.06792178499376
4 -0.000001800532126
5 -0.25706755534714
6 0.078587187180648
7 -0.000004576472875
8 -0.51079725637701
9 0.36205163055747
10 0.010195634610421
11 -0.018938379057061
12 0.008742744446640
13 -0.000000136466070
14 0.000000100683659
15 0.004232891070906
16 -0.025978774419615
17 0.15964716683460
18 0.66999705535766
19 0.000001434998170
20 -0.19680988738656
21 -0.015245110642913
22 0.000004516286797
23 -0.34716513849827
24 0.17914685842512
25 -0.009250592937490
26 0.006176247926878
27 0.003074345010613
28 -0.000000066608047
29 0.000000040218480
30 0.014818731977762
31 0.012047992329310
32 -0.006944966848117
33 -0.000000010731578
34 0.005627206241127
35 0.000120363338286
36 -0.062828226905446
37 -1.28476499796445
38 0.000000065661328
39 -0.014463346161308
40 -0.001023636094550
41 -0.000675123008990
42 -0.020303772304859
43 -0.000000032387724
44 0.001047909606489
45 -0.003086974568087
46 0.087665440666599
47 1.74110250421237
48 -0.000000131857704
49 -0.021440098245714
50 0.007205210391842
 Sym=     13.1
 Ene=       0.2723
 Spin= Alpha
 Occup=    0.000000
1 -0.025698180872122
2 0.059183768543063
3 0.81237400524510
4 0.000001040101149
5 0.10988331913447
6 -0.039311500718079
7 -0.000000458427623
8 0.78780304945628
9 -0.092322777330148
10 -0.017300571864944
11 0.022832856941358
12 -0.005532285076413
13 0.000000146712968
14 -0.000000055071423
15 -0.020321421936507
16 0.008347852244271
17 -0.011713376202653
18 -0.094255405714683
19 0.000002641723639
20 -0.39226952404798
21 -0.088044071167491
22 0.000007047942808
23 -1.39585156035902
24 -0.29447053670599
25 0.003754268506234
26 0.009475632674571
27 -0.013229901180805
28 0.000000017195398
29 0.000000124786722
30 -0.029365788666509
31 -0.021822875594788
32 1.91205988609962
33 0.000000134051441
34 -0.015640264547540
35 -0.021548225961866
36 0.036254846523451
37 -1.75675690308057
38 0.000000117962008
39 -0.019346009389518
40 0.013554145369162
41 0.080238819345535
42 0.035925524910181
43 -0.000000045568139
44 -0.005445703540847
45 -0.006981477613798
46 0.059872101820008
47 -1.25886180340265
48 0.000000075098695
49 0.018040687504249
50 -0.011780914608529
 Sym=     14.1
 Ene=       0.4581
 Spin= Alpha
 Occup=    0.000000
1 0.049958139511533
2 -0.15606779307153
3 -3.76476219758366
4 0.000001208366852
5 0.16967818390241
6 -0.23477495706345
7 -0.000001378886887
8 0.94514829752549
9 -2.76227583685079
10 0.031215170505678
11 0.030158923670328
12 -0.061374094176005
13 -0.000000313617391
14 0.000000036025322
15 0.030651863581071
16 -0.081567845799262
17 -0.065164389807778
18 3.63082572605167
19 0.000001384387471
20 0.018225163421082
21 -0.087102012236625
22 0.000000333360712
23 0.65128194307944
24 -3.33721965649882
25 -0.056447977193994
26 0.028194027320362
27 0.028253949873631
28 -0.000000604418564
29 -0.000000204267634
30 -0.018703542842665
31 0.25958024456304
32 0.59833761341483
33 -0.000000081661826
34 0.014966458083644
35 -0.004695454557275
36 0.26951253998080
37 0.31212241284434
38 0.000000213167764
39 -0.022146110336005
40 -0.006596544850356
41 -0.14593846314614
42 0.059062437603749
43 -0.000000002514285
44 0.015516586979809
45 -0.004901058896788
46 0.091301194004288
47 -1.13509852636895
48 -0.000000143321193
49 -0.017792298629687
50 -0.001046854944119
 Sym=     15.1
 Ene=       0.5897
 Spin= Alpha
 Occup=    0.000000
1 0.17665898756571
2 0.57108347819478
3 -1.04514071224662
4 0.000000062897172
5 -0.075085873518266
6 0.46326312937245
7 -0.000003140755209
8 0.25856781680450
9 -1.44608271726652
10 -0.079941077042160
11 0.029679033617049