[Molden Format]
[Molpro variables]
_NUMVAR=  685.0000000000000    
_EV2006= 0.3674930886769165E-01
_EV= 0.3674932534394180E-01
_KJOULE= 0.3808798324128737E-03
_KJOULE/MOL= 0.3808798324128737E-03
_CM= 0.4556335267302901E-05
_CM-1= 0.4556335267302901E-05
_KCAL= 0.1593601117815568E-02
_KCAL/MOL= 0.1593601117815568E-02
_KELVIN2006= 0.3166828861084835E-05
_KELVIN= 0.3166814820820034E-05
_HERTZ2006= 0.1519829850815779E-15
_HERTZ= 0.1519829846011223E-15
_HZ2006= 0.1519829850815779E-15
_HZ= 0.1519829846011223E-15
_TOA2006= 0.5291772490000000    
_TOA= 0.5291772090000000    
_TOANG2006= 0.5291772490000000    
_TOANG= 0.5291772090000000    
_TORAD= 0.1745329251994330E-01
_TOCM=  219474.6306700000    
_TODEBYE=  2.541580000000000    
_TOEV2006=  27.21139610000000    
_TOEV=  27.21138390000000    
_TOHERTZ2006=  6579683899900000.    
_TOHERTZ=  6579683920700000.    
_TOHZ2006=  6579683899900000.    
_TOHZ=  6579683920700000.    
_TOK2006=  315773.3000000000    
_TOK=  315774.7000000000    
_TOKCAL=  627.5096000000000    
_TOKELVIN2006=  315773.3000000000    
_TOKELVIN=  315774.7000000000    
_TOKJ=  2625.500000000000    
_TOKJOULE=  2625.500000000000    
_ANG2006=  1.889725988578923    
_ANG=  1.889726131421507    
_ANGSTROM2006=  1.889725988578923    
_ANGSTROM=  1.889726131421507    
_IGNORE_UNDEF=  2.000000000000000    
_STRICTCHECK=  0.000000000000000    
_SEW_ONEEL=  0.000000000000000    
_CPPDONE=FALSE
_DKROLL_DONE=  0.000000000000000    
_FOCKDONE=  0.000000000000000    
_GRADONE=FALSE
_HESSDONE=FALSE
_INTDONE=TRUE
_SCFDONE=FALSE
_MODUL_CUDA=FALSE
_MODUL_SLATER=FALSE
_MODUL_MRCC=FALSE
_MRCC_EXEC=
_FITC_AO_SAVED=FALSE
_FITC_MO_SAVED=FALSE
_SHARED_FS=TRUE
_LSTYP=SEWARD
_INTYP=INTS
_GEOMTYP=ZMAT
_GRADTYP=ALASKA
_DIRECT=FALSE
_SYNCM=  0.000000000000000    
_BASIS=CC-PVDZ
_ZORIENT=  1.000000000000000    
_NELEC=  10.00000000000000    
_SPIN=  0.000000000000000    
!SPIN=  0.000000000000000    
_QSDSTEP=  0.000000000000000    
_QSDIRC=  0.000000000000000    
_PROGRAM=RS2
_CPUSTEP= 0.5000000000000004E-01
_SYSSTEP= 0.1000000000000001E-01
_WALLSTEP=  1.200000000000000    
!DFMP2=  0.000000000000000    
!DFSCF=  0.000000000000000    
!SCSGRD=  0.000000000000000    
_BASINP=  610.0000000000000    
_CPUTOT= 0.6200000000000000    
_DFTEXFAC=  1.000000000000000    
_DMX= 0.2868624402499134E-05
_DMY= 0.5050107503125387E-06
_DMZ= 0.4932386425370527E-01
_EMP2= -40.19492254535096    
_ENERGR= -40.06010974804651    
_ENERGU= -40.18652092390519    
_ENERGY= -40.19492254535096    
_ENUC=  10.95758901741975    
_GRADEXFAC=  9999.000000000000    
_GRADMETHOD=TRUE
!GRID_FREEZE= -1.000000000000000    
_ITERATIONS=  4.000000000000000    
_LASTNELEC=  2.000000000000000    
_LASTSPIN=  0.000000000000000    
_LASTSYM=  1.000000000000000    
_MPP_PROG=  1.000000000000000    
_NPROC_MPP=  4.000000000000000    
_NPROC_SMP=  1.000000000000000    
_NUMSTEP=  0.000000000000000    
_ORBITAL=  2141.200000000000    
_PI=  3.141592653589793    
!MCACT=  2.000000000000000    
!MCCLOSED=  4.000000000000000    
!MCFREEZE=  0.000000000000000    
!MCMS2=  0.000000000000000    
!MCNEL=  2.000000000000000    
!MCNSTSYM=  1.000000000000000    
!MCSTATE=  1.000000000000000    
!MCSYM=  1.000000000000000    
!MCWEIGHT=  1.000000000000000    
_SEIG_MIN= 0.1528847846802228E-01
_SEWPROP=TRUE
_STATUS=  1.000000000000000    
_SYSTOT= 0.1500000000000000    
_VERSION=  2010001.000000000    
_WALLTOT=  7.930000000000000    
_DATE=30-Aug-19
_LASTORB=MCSCF
_MACHINE=Linux-2.6.34-12-desktop/tt108(x86_64) 64 bit mpp version
_OUTPUT=/home/carlo/qm/combustion/test_diss/newalg/ch4_ch3_h_vrc_test1/dist_3.4/molpro.xml
_PGROUP=C1
_TIME=04:23:40
_LIBMOL=/programs/molpro2010p/bin/../lib/
!SURFREC=  0.000000000000000    
!POLYREC=  0.000000000000000    
!DIPREC=  0.000000000000000    
!VSCFREC=  0.000000000000000    
!VCIREC=  0.000000000000000    
!PVCIREC=  0.000000000000000    
!VMP2REC=  0.000000000000000    
!VMCSCFREC=  0.000000000000000    
!GAREC=  0.000000000000000    
!SCFORB=  21002.00000000000    
!MCORB=  21412.00000000000    
!CIOCC=  6.000000000000000    
!CICORE=  1.000000000000000    
!CICLOS=  4.000000000000000    
!CIISTSYM=  1.000000000000000    
!CIISTMS2=  0.000000000000000    
!CIISTNEL=  8.000000000000000    
!NEWMOL=  0.000000000000000    
!NEWSYM=  0.000000000000000    
_SLFILES=slscratch
_NGSSTO=  9.000000000000000    
_SIN=SIN
_COS=COS
_TAN=TAN
_ACOS=ACOS
_ASIN=ASIN
_ATAN=ATAN
_COSH=COSH
_SINH=SINH
_TANH=TANH
_ABS=ABS
_MOD=MOD
_ERF=ERF
_REFC=REFC
_ERFC=ERFC
_HYPOT=HYPOT
_J0=J0
_J1=J1
_JN=JN
_GAMMA=GAMMA
_LGAMMA=LGAMMA
_Y0=Y0
_Y1=Y1
_YN=YN
_EXP=EXP
_LOG=LOG
_LOG10=LOG10
_SQRT=SQRT
_INT=INT
_NINT=NINT
_MAX=MAX
_MIN=MIN
_COSMO=  0.000000000000000    
_COSMOIT=  0.000000000000000    
_COSMOES=  0.000000000000000    
_COSMOEDS=  0.000000000000000    
_COSMOEC=  0.000000000000000    
_COSMOEDCORR=  0.000000000000000    
_FEPSI=  1.000000000000000    
_SL_IsMM=  0.000000000000000    
_SL_NSYM=  0.000000000000000    
_SL_System_BitSw=  0.000000000000000    
_SL_Unique_atoms=  0.000000000000000    
_SL_GRAD=  0.000000000000000    
_SL_MAXUPD_Hess=  5.000000000000000    
_SL_N_PRINT_COD=  5.000000000000000    
_SL_PRINT_CODES=  0.000000000000000    
_SL_BasType=  0.000000000000000    
_SL_Energy_Pred=  0.000000000000000    
_SL_New_Coords=  0.000000000000000    
_SL_Total_Nuclea=  0.000000000000000    
_SL_Highest_Mltp=  0.000000000000000    
_SL_Ref_Geom=  0.000000000000000    
!LATTICE= -1.000000000000000    
!NEWLATTICE=  0.000000000000000    
!LATGRAD_VAR=FALSE
!SEW_LATTICE=  1.000000000000000    
!LOCAL=  0.000000000000000    
!SAVEDOM= -1.000000000000000    
!RESTDOM= -1.000000000000000    
!SAVEDOM_HF= -1.000000000000000    
!RESTDOM_HF= -1.000000000000000    
!HESSREC=  0.000000000000000    
!FREQREC=  0.000000000000000    
!NMODREC=  0.000000000000000    
!GTASKS=  0.000000000000000    
!HTASKS=  0.000000000000000    
!THRCHG= 0.1000000000000000    
!DEBUG= -1.000000000000000    
!CFIT_CPHF=  0.000000000000000    
!RDOMAUX_CPHF=  3.000000000000000    
!THRAO_CPHF= 0.1000000000000000E-09
!THRMO_CPHF= 0.1000000000000000E-08
!THROV_CPHF= 0.1000000000000000E-11
!THRSW_CPHF= 0.1000000000000000E-09
!THRPROD_CPHF= 0.1000000000000000E-08
!THRAOPR_CPHF= 0.1000000000000000E-11
!CFIT_SCFGRD=  0.000000000000000    
!RDOMAUX_SCFGRD=  5.000000000000000    
!THRAO_SCFGRD= 0.1000000000000000E-09
!THRMO_SCFGRD= 0.1000000000000000E-08
!THROV_SCFGRD= 0.1000000000000000E-11
!THRSW_SCFGRD= 0.1000000000000000E-09
!THRPROD_SCFGRD= 0.1000000000000000E-08
!THRAOPR_SCFGRD= 0.1000000000000000E-11
!LOCFIT_SCF=  0.000000000000000    
!LOCFIT_MP2= -1.000000000000000    
_RIDOM=  0.000000000000000    
!CC2_METHOD=  0.000000000000000    
_BASIS2006=FALSE
_SVDDEL= -1.000000000000000    
_SVDDELA= -1.000000000000000    
_SVDDELP= -1.000000000000000    
_SVDDELF= -1.000000000000000    
_SVDDELS= -1.000000000000000    
_SVDDEL_ABS= -1.000000000000000    
_SVDDELA_ABS= -1.000000000000000    
_SVDDELP_ABS= -1.000000000000000    
_SVDDELF_ABS= -1.000000000000000    
_SVDDELS_ABS= -1.000000000000000    
_MAXBASIS=  0.000000000000000    
!OPT_CONICAL=  0.000000000000000    
!CLEARSP_JGRID=  0.000000000000000    
RCH1=  1.089911931332443    
RCH2=  1.089911815112580    
RCH3=  1.089911977659495    
AHCC1=  119.9902374523316    
AHCC2=  119.9898573872782    
AHCC3=  90.57115628961012    
B1=  178.0064655353570    
B2= -90.99135772790133    
RCH4=  3.400000000000000    
GX1= 0.9474729629616475E-05
GY1= 0.1421533436210716E-05
GZ1= 0.3997768104946708    
GX2=  1.026288784279256    
GY2=  1.785618146793981    
GZ2= 0.4202770471166192    
GX3=  1.033255394978780    
GY3= -1.781591942013119    
GZ3= 0.4203588659658308    
GX4= -2.059514832626796    
GY4=-0.4020172671832190E-02
GZ4= 0.4207621685524838    
GX5=-0.1422511469674516E-03
GY5=-0.2297164719901323E-04
GZ5= -6.025292034500668    
CBSEN= -40.19492254535096    
[Atoms] Angs
C     1    6         0.0000050138        0.0000007522        0.2115527768
H     2    1         0.5430886345        0.9449084273        0.2224010348
H     3    1         0.5467752061       -0.9427778515        0.2224443315
H     4    1        -1.0898483110       -0.0021273838        0.2226577500
H     5    1        -0.0000752761       -0.0000121561       -3.1884472222
[GTO]
  1 0
 s    9  1.00
  0.6665000000D+04  0.6920001793D-03
  0.1000000000D+04  0.5329001381D-02
  0.2280000000D+03  0.2707700701D-01
  0.6471000000D+02  0.1017180264D+00
  0.2106000000D+02  0.2747400712D+00
  0.7495000000D+01  0.4485641162D+00
  0.2797000000D+01  0.2850740738D+00
  0.5215000000D+00  0.1520400394D-01
  0.1596000000D+00 -0.3191000827D-02
 s    9  1.00
  0.6665000000D+04 -0.1460000642D-03
  0.1000000000D+04 -0.1154000508D-02
  0.2280000000D+03 -0.5725002519D-02
  0.6471000000D+02 -0.2331201026D-01
  0.2106000000D+02 -0.6395502813D-01
  0.7495000000D+01 -0.1499810660D+00
  0.2797000000D+01 -0.1272620560D+00
  0.5215000000D+00  0.5445292395D+00
  0.1596000000D+00  0.5804962554D+00
 s    9  1.00
  0.6665000000D+04  0.0000000000D+00
  0.1000000000D+04  0.0000000000D+00
  0.2280000000D+03  0.0000000000D+00
  0.6471000000D+02  0.0000000000D+00
  0.2106000000D+02  0.0000000000D+00
  0.7495000000D+01  0.0000000000D+00
  0.2797000000D+01  0.0000000000D+00
  0.5215000000D+00  0.0000000000D+00
  0.1596000000D+00  0.1000000000D+01
 p    4  1.00
  0.9439000000D+01  0.3810902127D-01
  0.2002000000D+01  0.2094801169D+00
  0.5456000000D+00  0.5085572839D+00
  0.1517000000D+00  0.4688422617D+00
 p    4  1.00
  0.9439000000D+01  0.0000000000D+00
  0.2002000000D+01  0.0000000000D+00
  0.5456000000D+00  0.0000000000D+00
  0.1517000000D+00  0.1000000000D+01
 d    1  1.00
  0.5500000000D+00  0.1000000000D+01
  
  2 0
 s    4  1.00
  0.1301000000D+02  0.1968498999D-01
  0.1962000000D+01  0.1379769298D+00
  0.4446000000D+00  0.4781477569D+00
  0.1220000000D+00  0.5012397451D+00
 s    4  1.00
  0.1301000000D+02  0.0000000000D+00
  0.1962000000D+01  0.0000000000D+00
  0.4446000000D+00  0.0000000000D+00
  0.1220000000D+00  0.1000000000D+01
 p    1  1.00
  0.7270000000D+00  0.1000000000D+01
  
  3 0
 s    4  1.00
  0.1301000000D+02  0.1968498999D-01
  0.1962000000D+01  0.1379769298D+00
  0.4446000000D+00  0.4781477569D+00
  0.1220000000D+00  0.5012397451D+00
 s    4  1.00
  0.1301000000D+02  0.0000000000D+00
  0.1962000000D+01  0.0000000000D+00
  0.4446000000D+00  0.0000000000D+00
  0.1220000000D+00  0.1000000000D+01
 p    1  1.00
  0.7270000000D+00  0.1000000000D+01
  
  4 0
 s    4  1.00
  0.1301000000D+02  0.1968498999D-01
  0.1962000000D+01  0.1379769298D+00
  0.4446000000D+00  0.4781477569D+00
  0.1220000000D+00  0.5012397451D+00
 s    4  1.00
  0.1301000000D+02  0.0000000000D+00
  0.1962000000D+01  0.0000000000D+00
  0.4446000000D+00  0.0000000000D+00
  0.1220000000D+00  0.1000000000D+01
 p    1  1.00
  0.7270000000D+00  0.1000000000D+01
  
  5 0
 s    4  1.00
  0.1301000000D+02  0.1968498999D-01
  0.1962000000D+01  0.1379769298D+00
  0.4446000000D+00  0.4781477569D+00
  0.1220000000D+00  0.5012397451D+00
 s    4  1.00
  0.1301000000D+02  0.0000000000D+00
  0.1962000000D+01  0.0000000000D+00
  0.4446000000D+00  0.0000000000D+00
  0.1220000000D+00  0.1000000000D+01
 p    1  1.00
  0.7270000000D+00  0.1000000000D+01
 
 
[MO]
 Sym=      1.1
 Ene=     -11.2355
 Spin= Alpha
 Occup=    2.000000
1 1.00131712455236
2 0.007666562671793
3 -0.007680233634354
4 0.000000001681305
5 0.000000000149965
6 0.000032538444757
7 0.000000004941878
8 0.000000000167197
9 -0.000003203152510
10 0.000353597315691
11 0.000353609059361
12 -0.000707206375051
13 -0.000000000446697
14 -0.000000175126832
15 -0.000000028282167
16 -0.000649388844202
17 0.001539988458750
18 0.000257627745970
19 0.000448238689868
20 0.000008249336860
21 -0.000649390756018
22 0.001539990694567
23 0.000259376578059
24 -0.000447228744788
25 0.000008269842454
26 -0.000649384041852
27 0.001539993243534
28 -0.000516995658078
29 -0.000001009521210
30 0.000008370779973
31 -0.000129583950873
32 0.000185638294424
33 -0.000000001129330
34 -0.000000000186773
35 0.000011116639870
 Sym=      2.1
 Ene=      -0.8961
 Spin= Alpha
 Occup=    2.000000
1 -0.026486428938430
2 0.75923576881677
3 -0.14199346604495
4 0.000000274018514
5 0.000000075901548
6 0.005309483858844
7 0.000000131759555
8 -0.000000004418017
9 -0.001023686184615
10 0.001883245876562
11 0.001883252322045
12 -0.003766498198606
13 -0.000000001312344
14 -0.000000927324656
15 -0.000000149815134
16 0.34652388223723
17 -0.14326097991410
18 -0.013939703171593
19 -0.024253581456235
20 -0.000122668401870
21 0.34652400600950
22 -0.14326103189956
23 -0.014034334984759
24 0.024198947064161
25 -0.000123781436396
26 0.34652429279615
27 -0.14326100874321
28 0.027974044494516
29 0.000054626160682
30 -0.000129267114196
31 0.002902751001457
32 0.001023059176489
33 0.000000002043125
34 0.000000000340363
35 0.000423584616242
 Sym=      3.1
 Ene=      -0.5682
 Spin= Alpha
 Occup=    2.000000
1 -0.000000000777577
2 -0.000000017266071
3 -0.000000026664497
4 0.019999532433498
5 -0.63712976586247
6 0.000011887054008
7 -0.003664601305393
8 0.11674374940050
9 -0.000002183238009
10 -0.000520516005640
11 0.000520491299763
12 0.000000024705877
13 -0.023545863730505
14 0.000025049323904
15 -0.000774492052951
16 -0.54131355418145
17 0.15230028783745
18 0.015206575468272
19 0.013479945065596
20 0.000215713021054
21 0.56003027416938
22 -0.15756628879025
23 -0.015050532665825
24 0.014311417402026
25 -0.000223928176400
26 -0.018716774783258
27 0.005266016929014
28 -0.000642067202402
29 -0.012307815976170
30 0.000007922754118
31 -0.000000089242016
32 -0.000000011818948
33 0.000007496118781
34 -0.000238853447887
35 -0.000000012664317
 Sym=      4.1
 Ene=      -0.5682
 Spin= Alpha
 Occup=    2.000000
1 -0.000000016114909
2 0.000000768911392
3 0.000000136031353
4 0.63712976589896
5 0.019999519868193
6 -0.000091807382692
7 -0.11674330770634
8 -0.003664565682283
9 0.000016862247869
10 -0.020391214311816
11 0.020391381296014
12 -0.000000166984198
13 0.000601055683223
14 0.000781225347633
15 0.000023784671883
16 0.33413960198041
17 -0.094011008914111
18 0.003157621782341
19 -0.015530587853816
20 -0.000134786323307
21 0.30172127716769
22 -0.084890022115639
23 0.003989108741760
24 0.014726501731794
25 -0.000122540764011
26 -0.63586116191001
27 0.17890106234024
28 -0.022630026298143
29 0.000318060316889
30 0.000259584299384
31 0.000000689985571
32 0.000000096713638
33 0.000238840629880
34 0.000007498762794
35 0.000000098488481
 Sym=      5.1
 Ene=      -0.1754
 Spin= Alpha
 Occup=    1.174342
1 -0.000566571862083
2 0.001486195335954
3 0.001502297221584
4 0.000089666084722
5 0.000014482885136
6 0.60824122553041
7 0.000010322628064
8 0.000001669569801
9 0.071529087049533
10 0.000879911649124
11 0.000880145704993
12 -0.001760057354117
13 0.000000020370980
14 -0.000000385662267
15 -0.000000059486504
16 0.008473449737252
17 -0.004841821534448
18 -0.000122939638139
19 -0.000216984606219
20 0.013655792276571
21 0.008472903894468
22 -0.004841630980627
23 -0.000123777700505
24 0.000217109079899
25 0.013655753470349
26 0.008470185332986
27 -0.004840694764178
28 0.000252470283517
29 0.000000804611682
30 0.013655528344615
31 -0.67771161392007
32 -0.024251054348095
33 -0.000000047612669
34 -0.000000007772265
35 -0.000787110727695
 Sym=      6.1
 Ene=      -0.1101
 Spin= Alpha
 Occup=    0.825658
1 0.001334361820141
2 -0.013621881168596
3 -0.011722118915943
4 0.000092318405192
5 0.000014911087415
6 0.65602065391989
7 0.000010534813716
8 0.000001700863159
9 0.075846157455727
10 0.000128751837307
11 0.000128532853890
12 -0.000257284691197
13 -0.000000019373018
14 -0.000000024123813
15 -0.000000000708559
16 -0.000347884788541
17 0.002112852820600
18 0.000030215168088
19 0.000049455799684
20 0.013661090978998
21 -0.000347322926955
22 0.002112701367491
23 0.000030398923589
24 -0.000048693221995
25 0.013661109423153
26 -0.000344554769942
27 0.002111948687351
28 -0.000054604370818
29 0.000000208667914
30 0.013661163208241
31 0.74033644866050
32 -0.026603412490287
33 0.000000042577667
34 0.000000006975129
35 -0.002012311524011
 Sym=      7.1
 Ene=       0.2003
 Spin= Alpha
 Occup=    0.000000
1 -0.080430955328205
2 0.22210889944347
3 2.04970155647067
4 -0.000000327827097
5 0.000000010390386
6 0.009174385179206
7 -0.000003257263339
8 -0.000000253944341
9 0.006142108603875
10 0.013435095132973
11 0.013435155294361
12 -0.026870250427334
13 -0.000000017680485
14 -0.000006699197085
15 -0.000001081499059
16 -0.057209085708884
17 -1.00663873196512
18 0.008825025788647
19 0.015354343023876
20 0.000594086554494
21 -0.057208860085572
22 -1.00664057121987
23 0.008884947106756
24 -0.015319756010055
25 0.000594790430274
26 -0.057207163705102
27 -1.00665000441844
28 -0.017709761835444
29 -0.000034572452469
30 0.000598256998214
31 0.084873018308739
32 -0.046847631129241
33 -0.000000736663682
34 -0.000000119419484
35 -0.004687886392381
 Sym=      8.1
 Ene=       0.2696
 Spin= Alpha
 Occup=    0.000000
1 -0.000000044684648
2 0.000000067274508
3 0.000000733336961
4 0.003764215180813
5 0.44595718385736
6 -0.000010731615238
7 0.010465567268943
8 1.23990181531710
9 -0.000030534117224
10 -0.000302670541316
11 0.000302712867172
12 -0.000000042325856
13 0.024440167063716
14 0.000008634816750
15 0.001080702818903
16 -0.021425608058688
17 -1.87909350737422
18 0.010154963082964
19 0.021681203285229
20 0.000083649352574
21 0.021169731420303
22 1.85667510560222
23 -0.010033351562690
24 0.021431936984096
25 -0.000083617488436
26 0.000255556085080
27 0.022417474191079
28 0.000276675347406
29 0.004072730828487
30 -0.000001140881461
31 0.000002693168180
32 -0.000001215049007
33 -0.000020265984635
34 -0.002388178247867
35 -0.000000163937851
 Sym=      9.1
 Ene=       0.2696
 Spin= Alpha
 Occup=    0.000000
1 -0.000000224921779
2 0.000000972274874
3 0.000005155535967
4 0.44595762565167
5 -0.003764195134556
6 -0.000063045161270
7 1.23989844298691
8 -0.010465753654404
9 -0.000179395779240
10 -0.021165502938132
11 0.021165655061841
12 -0.000000152123709
13 -0.000349485304623
14 0.001087732164619
15 -0.000009668560681
16 -0.012076832786050
17 -1.05900879392858
18 0.009776154547799
19 0.009889453446947
20 0.000046692236214
21 -0.012519506373091
22 -1.09783811599934
23 0.010025431227806
24 -0.010298886000054
25 0.000048893881025
26 0.024593133659402
27 2.15684190488370
28 0.027384439525926
29 0.000011151965693
30 -0.000102102449226
31 0.000015709950344
32 -0.000007027989076
33 -0.002386600651938
34 0.000020036609193
35 -0.000000960733933
 Sym=     10.1
 Ene=       0.6159
 Spin= Alpha
 Occup=    0.000000
1 -0.000689812513833
2 -0.001591158883317
3 0.005358797528047
4 -0.44616299334824
5 -0.006751635863116
6 0.005711682377187
7 1.64234667583825
8 0.024853383477034
9 -0.005976659155759
10 0.10846720726030
11 -0.10939738746755
12 0.000930180207251
13 -0.001166479793603
14 -0.001828450914034
15 -0.000024283124981
16 -0.68578072539465
17 0.24350380301277
18 0.052473134827965
19 -0.033055162971852
20 -0.000105475986866
21 -0.65535248198345
22 0.23272044632829
23 0.053213855363127
24 0.033653486561561
25 -0.000091237688768
26 1.32885359881844
27 -0.47044850951269
28 -0.003852353164067
29 0.000942754541054
30 0.000953520626921
31 -0.018502515392608
32 0.020103153818251
33 0.005611117813972
34 0.000084882152468
35 0.000156830121072
 Sym=     11.1
 Ene=       0.6159
 Spin= Alpha
 Occup=    0.000000
1 0.000094189774926
2 0.000217222598996
3 -0.000732148894319
4 -0.006758883976951
5 0.44618817776845
6 -0.000782157298656
7 0.024879579799751
8 -1.64244560821562
9 0.000820018630758
10 0.001075300345987
11 -0.000948243777163
12 -0.000127056568824
13 0.12579166285584
14 -0.000030540414815
15 0.001792656907231
16 1.14619191589536
17 -0.40624519049238
18 0.033799242591812
19 -0.015197166143175
20 0.000558348794381
21 -1.16266268076886
22 0.41195309177526
23 -0.032292920731014
24 -0.014539016928399
25 -0.000637427570633
26 0.018147162494645
27 -0.006495243023469
28 0.000036332358748
29 -0.072105253979375
30 -0.000024342957515
31 0.002531824183099
32 -0.002750805746913
33 0.000085025903459
34 -0.005611081800979
35 -0.000021486706941
 Sym=     12.1
 Ene=       0.6164
 Spin= Alpha
 Occup=    0.000000
1 -0.066432635560375
2 -0.15305178531535
3 0.51588608339724
4 0.004717844657826
5 0.000719089838675
6 0.54567252644102
7 -0.017129945089210
8 -0.002608534562161
9 -0.55521944722372
10 -0.045984303205102
11 -0.043719087190811
12 0.089703390395913
13 0.000191325188433
14 0.000037085121857
15 0.000005726887224
16 -0.38603502137326
17 0.18283320385279
18 -0.017741110980358
19 -0.029683213241196
20 0.024842421514236
21 -0.38963759493709
22 0.18411663508227
23 -0.017959960083596
24 0.029567930254011
25 0.024840025252824
26 -0.40860096788477
27 0.19086829379144
28 0.034651506608712
29 -0.000044422899373
30 0.024827280825432
31 -1.77636018295721
32 1.93083107778519
33 -0.000058284256952
34 -0.000008873253938
35 0.014692998365807
 Sym=     13.1
 Ene=       0.7194
 Spin= Alpha
 Occup=    0.000000
1 -0.080820248754912
2 -0.059020950211720
3 0.42475807312602
4 -0.000128548791227
5 -0.000021273801051
6 -0.90504834118574
7 0.000148188250786
8 0.000026157876884
9 1.09140912458250
10 -0.10569954127361
11 -0.10570046959454
12 0.21140001086815
13 -0.000000080044130
14 0.000052964405947
15 0.000008551681815
16 -0.90340663410175
17 0.66973391431069
18 -0.045621286163740
19 -0.079368186777650
20 -0.033192745263417
21 -0.90340517176627
22 0.66973284230344
23 -0.045930902702198
24 0.079187917336635
25 -0.033196460375581
26 -0.90341088895512
27 0.66972713854487
28 0.091537347174853
29 0.000178065753639
30 -0.033214694161774
31 0.13822024206143
32 -0.13224481782749
33 0.000000472652190
34 0.000000083792372
35 -0.012918972950075
 Sym=     14.1
 Ene=       0.7860
 Spin= Alpha
 Occup=    0.000000
1 -0.012646685556121
2 0.12782120228226
3 -0.11491351076079
4 0.000127132721244
5 0.000020277148346
6 1.05250362818921
7 -0.000139754003130
8 -0.000021541392849
9 -1.32190669215843
10 -0.072281719844847
11 -0.072288587998383
12 0.14457030784323
13 -0.000000539882521
14 0.000041433039849
15 0.000006689151907
16 -0.57886622408730
17 0.53756586778963
18 -0.035136291831929
19 -0.061144916186561
20 0.030638873935343
21 -0.57885678377024
22 0.53755975476271
23 -0.035374792292795
24 0.061009527895936
25 0.030635082760244
26 -0.57881497689589
27 0.53752746395645
28 0.070532426502584
29 0.000138959901422
30 0.030616284907545
31 1.15241622504365
32 -1.37022493256745
33 0.000001350403956
34 0.000000220282445
35 0.050324225103553
 Sym=     15.1
 Ene=       0.8971
 Spin= Alpha
 Occup=    0.000000
1 0.000000925949075
2 0.000005105473674
3 -0.000008197416692
4 1.25577097301582
5 0.060595390985139
6 -0.000175013624181
7 -2.30906798787346
8 -0.11142074033736
9 0.000325235109680
10 0.29044112887816
11 -0.29044319131475
12 0.000002062436586
13 -0.014214160955842
14 -0.006078359573167
15 -0.000281167891589
16 -0.32409314425472
17 1.07858799379143
18 -0.027862201313360
19 -0.16271843303285
20 -0.001841644189824
21 -0.27597547822025
22 0.91845126569279
23 -0.014250433110412
24 0.14427491128009
25 -0.001576134243999
26 0.60006209684666
27 -1.99702864589042
28 -0.28691866859559
29 0.002566578311643
30 0.003465578646178
31 0.000014553141379
32 -0.000019100060263
33 0.002260329035398
34 0.000109642800943
35 -0.000000115705750
 Sym=     16.1
 Ene=       0.8971
 Spin= Alpha
 Occup=    0.000000
1 -0.000000163742088
2 -0.000000836423362
3 0.000001287956980
4 0.060595332078726
5 -1.25577078177215
6 0.000019635663709
7 -0.11142065683202
8 2.30906992805430
9 -0.000036506457828
10 0.012309721149908
11 -0.012309439471709
12 -0.000000281678199
13 0.33537439379772
14 -0.000300818764986
15 0.005982671508118
16 0.50578233588997
17 -1.68325499166223
18 0.15213326323908
19 0.19149309061690
20 0.002860003141535
21 -0.53356211714037
22 1.77570873108719
23 -0.15485903079465
24 0.20510464362386
25 -0.003027362826701
26 0.027781163992549
27 -0.092455709412273
28 -0.013151170324232
29 -0.067565470878018
30 0.000161985969332
31 -0.000001733689424
32 0.000002264785702
33 0.000108714494476
34 -0.002264878695520
35 0.000000008714242
 Sym=     17.1
 Ene=       1.0707
 Spin= Alpha
 Occup=    0.000000
1 -0.80291367722557
2 -3.64492776487298
3 6.10320971224040
4 0.000005441007515
5 0.000000764261910
6 0.032268432116734
7 -0.000009451699317
8 -0.000000965700751
9 -0.030944816399513
10 0.017881299348987
11 0.017881350494763
12 -0.035762649843749
13 -0.000000278832019
14 -0.000005979811628
15 -0.000000970668382
16 -0.16428598908010
17 -0.85493734162954
18 0.091627191474673
19 0.15942001924250
20 0.002705102835055
21 -0.16428524338362
22 -0.85493936216739
23 0.092249322865487
24 -0.15906079849533
25 0.002711881103182
26 -0.16428289174208
27 -0.85494799994060
28 -0.18387451903979
29 -0.000358910744116
30 0.002745242893245
31 0.16311618652776
32 -0.19489388179023
33 -0.000003436046288
34 -0.000000555576123
35 0.025009815872244
 Sym=     18.1
 Ene=       1.2152
 Spin= Alpha
 Occup=    0.000000
1 0.000000518101254
2 0.000002233702032
3 -0.000003564865111
4 0.000021659087496
5 -0.002082491741736
6 -0.000000849050170
7 0.000067931015125
8 -0.006534061783954
9 0.000001371950733
10 -0.000046044683977
11 0.000069763469234
12 -0.000023718785258
13 -0.011231165890806
14 -0.006513549860600
15 0.62645875510695
16 0.005905049038877
17 -0.001350655298024
18 -0.005390177183134
19 0.000415927346549
20 0.35780313096084
21 -0.005961774778539
22 0.001363796447519
23 0.005276821958639
24 0.000329444413478
25 -0.36130901983793
26 0.000058437837734
27 -0.000013304597762
28 0.000004740145136
29 0.009700171654097
30 0.003505947859883
31 -0.000004876053338
32 0.000005881327815
33 0.000010184465954
34 -0.000979909792005
35 -0.000000347243154
 Sym=     19.1
 Ene=       1.2152
 Spin= Alpha
 Occup=    0.000000
1 0.000003473010715
2 0.000014971592313
3 -0.000023883190927
4 -0.002082539174915
5 -0.000021647757851
6 -0.000005686123931
7 -0.006533881647486
8 -0.000067949149975
9 0.000009524225931
10 0.009960758270177
11 -0.009803477576324
12 -0.000157280693853
13 -0.000035902634736
14 0.62645604805216
15 0.006514108645131
16 0.003479588525622
17 -0.000795480831065
18 0.006586032665736
19 -0.005364628383024
20 0.21062500964533
21 0.003379393256023
22 -0.000772585111258
23 0.006655076556689
24 0.005406304789817
25 0.20455204196269
26 -0.006847535048398
27 0.001567005853607
28 -0.002795576000354
29 0.000066931359433
30 -0.41517816063659
31 -0.000032430552241
32 0.000039135274991
33 -0.000979861201306
34 -0.000010193054306
35 -0.000002369380848
 Sym=     20.1
 Ene=       1.5135
 Spin= Alpha
 Occup=    0.000000
1 -0.000004092504964
2 -0.000018138563034
3 0.000031891539915
4 0.000805640615176
5 -0.000063019370998
6 -0.000000838096979
7 0.031739644260692
8 -0.002483477103925
9 -0.000003669409846
10 -0.015145915314448
11 0.015145915730019
12 -0.000000000415571
13 -0.001471544646538
14 0.000750895266912
15 -0.000058747823704
16 -0.008866950424264
17 -0.006923094240439
18 -0.011944998942430
19 0.004138679080564
20 0.000401090990934
21 -0.011728762170391
22 -0.009154582257401
23 -0.011360542201767
24 -0.002973774033315
25 0.000530002633209
26 0.020601309329745
27 0.016054401822900
28 -0.005494574260968
29 0.001088512990265
30 -0.000926359460380
31 -0.000000698985428
32 0.000000863041865
33 0.99657160615604
34 -0.077974714189370
35 -0.000004092553696
 Sym=     21.1
 Ene=       1.5135
 Spin= Alpha
 Occup=    0.000000
1 -0.000000997017322
2 -0.000004419364496
3 0.000007773598383
4 0.000062248076443
5 0.000795379931831
6 -0.000000202836438
7 0.002484708542247
8 0.031757264185517
9 -0.000000892067216
10 -0.001274406951963
11 0.001274413665016
12 -0.000000006713052
13 0.017489503876037
14 0.000058364104436
15 0.000745875212009
16 -0.018656362659259
17 -0.014577285087363
18 0.002635785649804
19 -0.007253464454840
20 0.000840053121754
21 0.017005841938787
22 0.013283360005836
23 -0.004474961355058
24 -0.007837937255583
25 -0.000764960137271
26 0.001651880348962
27 0.001288253222603
28 -0.000413769503384
29 -0.013702976459323
30 -0.000073942768672
31 -0.000000170818960
32 0.000000210770133
33 0.077974723626205
34 0.99657171504622
35 -0.000000976346391
 Sym=     22.1
 Ene=       1.5185
 Spin= Alpha
 Occup=    0.000000
1 0.008396533920130
2 0.045400067733001
3 -0.027025083838972
4 -0.000012237182058
5 -0.000001982753445
6 -0.13006916104412
7 0.000041546803429
8 0.000006720632344
9 0.12766213153942
10 0.030360000261680
11 0.030390975065176
12 -0.060750975326857
13 0.000002777513039
14 -0.000014018300686
15 -0.000002274056952
16 -0.011689762177218
17 -0.005678574119290
18 -0.001798636543600
19 -0.003113703718253
20 0.041570986654203
21 -0.011682202110451
22 -0.005677700328490
23 -0.001812104444314
24 0.003105756942128
25 0.041570426366751
26 -0.011644893721362
27 -0.005673435408815
28 0.003595175544545
29 0.000005432027359
30 0.041567505847227
31 -0.034963247478102
32 0.047496085292646
33 0.000003336069435
34 0.000000521614908
35 0.99447035506134
 Sym=     23.1
 Ene=       1.6139
 Spin= Alpha
 Occup=    0.000000
1 0.000000000072338
2 0.000000000368084
3 -0.000000001258714
4 0.000000018702849
5 -0.000000902745475
6 0.000000000374269
7 0.000000212523550
8 0.000018192539053
9 -0.000000000677856
10 -0.000000124050116
11 0.000000124344246
12 -0.000000000294131
13 0.000008341116242
14 0.000000002709880
15 0.000000133464573
16 -0.000017390081947
17 0.000003998539797
18 0.51495856988171
19 -0.29597457534089
20 -0.000066928150451
21 0.000017074494852
22 -0.000003896272729
23 -0.51379879719279
24 -0.29798374366332
25 0.000080553885198
26 0.000000314654983
27 -0.000000100490727
28 -0.001160012838237
29 0.59394321566307
30 -0.000013626064386
31 -0.000000000123527
32 0.000000000064184
33 -0.000000009194017
34 -0.000000779148689
35 -0.000000001675809
 Sym=     24.1
 Ene=       1.7166
 Spin= Alpha
 Occup=    0.000000
1 0.000000198786498
2 0.000000641880546
3 -0.000001696823306
4 -0.000033115882083
5 -0.029153959494967
6 0.000002531610335
7 0.001345260587833
8 1.18414863991653
9 -0.000028871097350
10 -0.003071730249743