[Molden Format]
[Molpro variables]
_NUMVAR=  685.0000000000000    
_EV2006= 0.3674930886769165E-01
_EV= 0.3674932534394180E-01
_KJOULE= 0.3808798324128737E-03
_KJOULE/MOL= 0.3808798324128737E-03
_CM= 0.4556335267302901E-05
_CM-1= 0.4556335267302901E-05
_KCAL= 0.1593601117815568E-02
_KCAL/MOL= 0.1593601117815568E-02
_KELVIN2006= 0.3166828861084835E-05
_KELVIN= 0.3166814820820034E-05
_HERTZ2006= 0.1519829850815779E-15
_HERTZ= 0.1519829846011223E-15
_HZ2006= 0.1519829850815779E-15
_HZ= 0.1519829846011223E-15
_TOA2006= 0.5291772490000000    
_TOA= 0.5291772090000000    
_TOANG2006= 0.5291772490000000    
_TOANG= 0.5291772090000000    
_TORAD= 0.1745329251994330E-01
_TOCM=  219474.6306700000    
_TODEBYE=  2.541580000000000    
_TOEV2006=  27.21139610000000    
_TOEV=  27.21138390000000    
_TOHERTZ2006=  6579683899900000.    
_TOHERTZ=  6579683920700000.    
_TOHZ2006=  6579683899900000.    
_TOHZ=  6579683920700000.    
_TOK2006=  315773.3000000000    
_TOK=  315774.7000000000    
_TOKCAL=  627.5096000000000    
_TOKELVIN2006=  315773.3000000000    
_TOKELVIN=  315774.7000000000    
_TOKJ=  2625.500000000000    
_TOKJOULE=  2625.500000000000    
_ANG2006=  1.889725988578923    
_ANG=  1.889726131421507    
_ANGSTROM2006=  1.889725988578923    
_ANGSTROM=  1.889726131421507    
_IGNORE_UNDEF=  2.000000000000000    
_STRICTCHECK=  0.000000000000000    
_SEW_ONEEL=  0.000000000000000    
_CPPDONE=FALSE
_DKROLL_DONE=  0.000000000000000    
_FOCKDONE=  0.000000000000000    
_GRADONE=FALSE
_HESSDONE=FALSE
_INTDONE=TRUE
_SCFDONE=FALSE
_MODUL_CUDA=FALSE
_MODUL_SLATER=FALSE
_MODUL_MRCC=FALSE
_MRCC_EXEC=
_FITC_AO_SAVED=FALSE
_FITC_MO_SAVED=FALSE
_SHARED_FS=TRUE
_LSTYP=SEWARD
_INTYP=INTS
_GEOMTYP=ZMAT
_GRADTYP=ALASKA
_DIRECT=FALSE
_SYNCM=  0.000000000000000    
_BASIS=CC-PVDZ
_ZORIENT=  1.000000000000000    
_NELEC=  10.00000000000000    
_SPIN=  0.000000000000000    
!SPIN=  0.000000000000000    
_OPTCONV= 0.3507285983415551E-03
_QSDSTEP=  0.000000000000000    
_QSDIRC=  0.000000000000000    
_PROGRAM=OPTG
_CPUSTEP=  0.000000000000000    
_SYSSTEP=  0.000000000000000    
_WALLSTEP= 0.2600000000000000    
!DFMP2=  0.000000000000000    
!DFSCF=  0.000000000000000    
!SCSGRD=  0.000000000000000    
_BASINP=  610.0000000000000    
_CPUTOT=  31.63000000000000    
_DFTEXFAC=  1.000000000000000    
_DMX=-0.7172528808871426E-05
_DMY=-0.1446395915830097E-06
_DMZ= 0.1068739668053098E-04
_EMP2= -40.19315108841434    
_ENERGR= -40.05870265777046    
_ENERGU= -40.22062591536496    
_ENERGY= -40.19315108841434    
_ENUC=  10.05639695351601    
!RS2GRSTATE=  1.000000000000000    
!RS2GRSYM=  1.000000000000000    
_GRADENERG= -40.19315106570676    
_GRADEXFAC=  9999.000000000000    
_GRADMETHOD=TRUE
_GRADRECORD=  5200.100000000000    
_VIRIAL=-0.4719231788966685E-03
!GRID_FREEZE= -1.000000000000000    
_ITERATIONS=  0.000000000000000    
_LASTNELEC=  2.000000000000000    
_LASTSPIN=  0.000000000000000    
_LASTSYM=  1.000000000000000    
_MPP_PROG=  1.000000000000000    
_MSENERGY= -40.19315108841434    
_NPROC_MPP=  4.000000000000000    
_NPROC_SMP=  1.000000000000000    
_NUMSTEP=  0.000000000000000    
_OPTCONVMX= 0.1972711301423315E-03
_OPTCONVRMS= 0.4384107479269439E-04
_OPTGRAD= 0.1324600858284743E-03
_OPTGRADMX= 0.7648660900509470E-04
_OPTGRADRMS= 0.1655751072855929E-04
_OPTSTEP=  3.000000000000000    
_ORBITAL=  2142.200000000000    
_PI=  3.141592653589793    
!MCACT=  2.000000000000000    
!MCCLOSED=  4.000000000000000    
!MCFREEZE=  0.000000000000000    
!MCMS2=  0.000000000000000    
!MCNEL=  2.000000000000000    
!MCNSTSYM=  1.000000000000000    
!MCSTATE=  1.000000000000000    
!MCSYM=  1.000000000000000    
!MCWEIGHT=  1.000000000000000    
_SEIG_MIN= 0.1529444121574530E-01
_SEWPROP=TRUE
_STATUS=  1.000000000000000    
_SYSTOT=  1.820000000000000    
_VERSION=  2010001.000000000    
_WALLTOT=  153.6600000000000    
_DATE=30-Aug-19
_LASTORB=MCSCF
_MACHINE=Linux-2.6.34-12-desktop/tt108(x86_64) 64 bit mpp version
_OUTPUT=/home/carlo/qm/combustion/test_diss/newalg/ch4_ch3_h_vrc_test1/dist_10.0/molpro.xml
_PGROUP=C1
_TIME=04:11:00
_LIBMOL=/programs/molpro2010p/bin/../lib/
!SURFREC=  0.000000000000000    
!POLYREC=  0.000000000000000    
!DIPREC=  0.000000000000000    
!VSCFREC=  0.000000000000000    
!VCIREC=  0.000000000000000    
!PVCIREC=  0.000000000000000    
!VMP2REC=  0.000000000000000    
!VMCSCFREC=  0.000000000000000    
!GAREC=  0.000000000000000    
!SCFORB=  21002.00000000000    
!MCORB=  21422.00000000000    
!CIOCC=  6.000000000000000    
!CICORE=  1.000000000000000    
!CICLOS=  4.000000000000000    
!CIISTSYM=  1.000000000000000    
!CIISTMS2=  0.000000000000000    
!CIISTNEL=  8.000000000000000    
!NEWMOL=  0.000000000000000    
!NEWSYM=  0.000000000000000    
_SLFILES=slscratch
_NGSSTO=  9.000000000000000    
_SIN=SIN
_COS=COS
_TAN=TAN
_ACOS=ACOS
_ASIN=ASIN
_ATAN=ATAN
_COSH=COSH
_SINH=SINH
_TANH=TANH
_ABS=ABS
_MOD=MOD
_ERF=ERF
_REFC=REFC
_ERFC=ERFC
_HYPOT=HYPOT
_J0=J0
_J1=J1
_JN=JN
_GAMMA=GAMMA
_LGAMMA=LGAMMA
_Y0=Y0
_Y1=Y1
_YN=YN
_EXP=EXP
_LOG=LOG
_LOG10=LOG10
_SQRT=SQRT
_INT=INT
_NINT=NINT
_MAX=MAX
_MIN=MIN
_COSMO=  0.000000000000000    
_COSMOIT=  0.000000000000000    
_COSMOES=  0.000000000000000    
_COSMOEDS=  0.000000000000000    
_COSMOEC=  0.000000000000000    
_COSMOEDCORR=  0.000000000000000    
_FEPSI=  1.000000000000000    
_SL_IsMM=  0.000000000000000    
_SL_NSYM=  0.000000000000000    
_SL_System_BitSw=  0.000000000000000    
_SL_Unique_atoms=  0.000000000000000    
_SL_GRAD=  0.000000000000000    
_SL_MAXUPD_Hess=  5.000000000000000    
_SL_N_PRINT_COD=  5.000000000000000    
_SL_PRINT_CODES=  0.000000000000000    
_SL_BasType=  0.000000000000000    
_SL_Energy_Pred=  0.000000000000000    
_SL_New_Coords=  0.000000000000000    
_SL_Total_Nuclea=  0.000000000000000    
_SL_Highest_Mltp=  0.000000000000000    
_SL_Ref_Geom=  0.000000000000000    
!LATTICE= -1.000000000000000    
!NEWLATTICE=  0.000000000000000    
!LATGRAD_VAR=FALSE
!SEW_LATTICE=  1.000000000000000    
!LOCAL=  0.000000000000000    
!SAVEDOM= -1.000000000000000    
!RESTDOM= -1.000000000000000    
!SAVEDOM_HF= -1.000000000000000    
!RESTDOM_HF= -1.000000000000000    
!HESSREC=  0.000000000000000    
!FREQREC=  0.000000000000000    
!NMODREC=  0.000000000000000    
!GTASKS=  0.000000000000000    
!HTASKS=  0.000000000000000    
!THRCHG= 0.1000000000000000    
!DEBUG= -1.000000000000000    
!CFIT_CPHF=  0.000000000000000    
!RDOMAUX_CPHF=  3.000000000000000    
!THRAO_CPHF= 0.1000000000000000E-09
!THRMO_CPHF= 0.1000000000000000E-09
!THROV_CPHF= 0.1000000000000000E-11
!THRSW_CPHF= 0.1000000000000000E-09
!THRPROD_CPHF= 0.1000000000000000E-09
!THRAOPR_CPHF= 0.1000000000000000E-11
!CFIT_SCFGRD=  0.000000000000000    
!RDOMAUX_SCFGRD=  5.000000000000000    
!THRAO_SCFGRD= 0.1000000000000000E-09
!THRMO_SCFGRD= 0.1000000000000000E-09
!THROV_SCFGRD= 0.1000000000000000E-11
!THRSW_SCFGRD= 0.1000000000000000E-09
!THRPROD_SCFGRD= 0.1000000000000000E-09
!THRAOPR_SCFGRD= 0.1000000000000000E-11
!LOCFIT_SCF=  0.000000000000000    
!LOCFIT_MP2= -1.000000000000000    
_RIDOM=  0.000000000000000    
!CC2_METHOD=  0.000000000000000    
_BASIS2006=FALSE
_SVDDEL= -1.000000000000000    
_SVDDELA= -1.000000000000000    
_SVDDELP= -1.000000000000000    
_SVDDELF= -1.000000000000000    
_SVDDELS= -1.000000000000000    
_SVDDEL_ABS= -1.000000000000000    
_SVDDELA_ABS= -1.000000000000000    
_SVDDELP_ABS= -1.000000000000000    
_SVDDELF_ABS= -1.000000000000000    
_SVDDELS_ABS= -1.000000000000000    
_MAXBASIS=  0.000000000000000    
!OPT_CONICAL=  0.000000000000000    
!CLEARSP_JGRID=  0.000000000000000    
RCH1=  1.089850257541075    
RCH2=  1.089850266261031    
RCH3=  1.089850252462761    
AHCC1=  120.0000000064769    
AHCC2=  120.0000001722860    
AHCC3=  96.32004597408775    
B1=  180.0009651540326    
B2= -109.1363720541178    
RCH4=  10.00000000000000    
GX1= 0.7397023504334001E-02
GY1=-0.1431641805105244E-08
GZ1=  1.187262312058955    
GX2=-0.6101906275903688    
GY2= -1.951163871639845    
GZ2=  1.417830180613643    
GX3= -1.266838845841003    
GY3=  1.546486523676683    
GZ3=  1.662992216529269    
GX4=  1.899210015182018    
GY4= 0.4046773605208180    
GZ4= 0.4809363993853069    
GX5=-0.1103263136324600    
GY5= 0.4502336947709296E-08
GZ5= -17.70963231096370    
CBSEN= -40.19315108841434    
[Atoms] Angs
C     1    6         0.0039143363       -0.0000000008        0.6282721566
H     2    1        -0.3228989733       -1.0325114519        0.7502834178
H     3    1        -0.6703822447        0.8183654224        0.8800175797
H     4    1         1.0050186551        0.2141460362        0.2545005815
H     5    1        -0.0583821707        0.0000000024       -9.3715337987
[GTO]
  1 0
 s    9  1.00
  0.6665000000D+04  0.6920001793D-03
  0.1000000000D+04  0.5329001381D-02
  0.2280000000D+03  0.2707700701D-01
  0.6471000000D+02  0.1017180264D+00
  0.2106000000D+02  0.2747400712D+00
  0.7495000000D+01  0.4485641162D+00
  0.2797000000D+01  0.2850740738D+00
  0.5215000000D+00  0.1520400394D-01
  0.1596000000D+00 -0.3191000827D-02
 s    9  1.00
  0.6665000000D+04 -0.1460000642D-03
  0.1000000000D+04 -0.1154000508D-02
  0.2280000000D+03 -0.5725002519D-02
  0.6471000000D+02 -0.2331201026D-01
  0.2106000000D+02 -0.6395502813D-01
  0.7495000000D+01 -0.1499810660D+00
  0.2797000000D+01 -0.1272620560D+00
  0.5215000000D+00  0.5445292395D+00
  0.1596000000D+00  0.5804962554D+00
 s    9  1.00
  0.6665000000D+04  0.0000000000D+00
  0.1000000000D+04  0.0000000000D+00
  0.2280000000D+03  0.0000000000D+00
  0.6471000000D+02  0.0000000000D+00
  0.2106000000D+02  0.0000000000D+00
  0.7495000000D+01  0.0000000000D+00
  0.2797000000D+01  0.0000000000D+00
  0.5215000000D+00  0.0000000000D+00
  0.1596000000D+00  0.1000000000D+01
 p    4  1.00
  0.9439000000D+01  0.3810902127D-01
  0.2002000000D+01  0.2094801169D+00
  0.5456000000D+00  0.5085572839D+00
  0.1517000000D+00  0.4688422617D+00
 p    4  1.00
  0.9439000000D+01  0.0000000000D+00
  0.2002000000D+01  0.0000000000D+00
  0.5456000000D+00  0.0000000000D+00
  0.1517000000D+00  0.1000000000D+01
 d    1  1.00
  0.5500000000D+00  0.1000000000D+01
  
  2 0
 s    4  1.00
  0.1301000000D+02  0.1968498999D-01
  0.1962000000D+01  0.1379769298D+00
  0.4446000000D+00  0.4781477569D+00
  0.1220000000D+00  0.5012397451D+00
 s    4  1.00
  0.1301000000D+02  0.0000000000D+00
  0.1962000000D+01  0.0000000000D+00
  0.4446000000D+00  0.0000000000D+00
  0.1220000000D+00  0.1000000000D+01
 p    1  1.00
  0.7270000000D+00  0.1000000000D+01
  
  3 0
 s    4  1.00
  0.1301000000D+02  0.1968498999D-01
  0.1962000000D+01  0.1379769298D+00
  0.4446000000D+00  0.4781477569D+00
  0.1220000000D+00  0.5012397451D+00
 s    4  1.00
  0.1301000000D+02  0.0000000000D+00
  0.1962000000D+01  0.0000000000D+00
  0.4446000000D+00  0.0000000000D+00
  0.1220000000D+00  0.1000000000D+01
 p    1  1.00
  0.7270000000D+00  0.1000000000D+01
  
  4 0
 s    4  1.00
  0.1301000000D+02  0.1968498999D-01
  0.1962000000D+01  0.1379769298D+00
  0.4446000000D+00  0.4781477569D+00
  0.1220000000D+00  0.5012397451D+00
 s    4  1.00
  0.1301000000D+02  0.0000000000D+00
  0.1962000000D+01  0.0000000000D+00
  0.4446000000D+00  0.0000000000D+00
  0.1220000000D+00  0.1000000000D+01
 p    1  1.00
  0.7270000000D+00  0.1000000000D+01
  
  5 0
 s    4  1.00
  0.1301000000D+02  0.1968498999D-01
  0.1962000000D+01  0.1379769298D+00
  0.4446000000D+00  0.4781477569D+00
  0.1220000000D+00  0.5012397451D+00
 s    4  1.00
  0.1301000000D+02  0.0000000000D+00
  0.1962000000D+01  0.0000000000D+00
  0.4446000000D+00  0.0000000000D+00
  0.1220000000D+00  0.1000000000D+01
 p    1  1.00
  0.7270000000D+00  0.1000000000D+01
 
 
[MO]
 Sym=      1.1
 Ene=     -11.2321
 Spin= Alpha
 Occup=    2.000000
1 1.00132233499081
2 0.007707543419468
3 -0.007711349324968
4 -0.000000010080902
5 -0.000000000036467
6 -0.000000027166964
7 0.000000006726874
8 0.000000000007101
9 0.000000018147477
10 0.000222018003516
11 0.000350749805339
12 -0.000572767808855
13 0.000000000057265
14 -0.000398139205064
15 -0.000000000008118
16 -0.000661126480736
17 0.001554541178618
18 -0.000155570212191
19 -0.000491495312643
20 0.000058077501375
21 -0.000661126354790
22 0.001554541098629
23 -0.000320978925816
24 0.000389557654091
25 0.000119833455013
26 -0.000661126491131
27 0.001554541214100
28 0.000476544100024
29 0.000101937613614
30 -0.000177924635330
31 0.000000000001313
32 -0.000000000003816
33 0.000000000000036
34 0.000000000000000
35 0.000000000000005
 Sym=      2.1
 Ene=      -0.8942
 Spin= Alpha
 Occup=    2.000000
1 -0.026715190727356
2 0.75799031455351
3 -0.14141711025554
4 -0.000000821809184
5 -0.000000001895341
6 -0.000002214336695
7 0.000000137150555
8 0.000000000870704
9 0.000000373445869
10 0.001160749294376
11 0.001833781951549
12 -0.002994531245925
13 0.000000000205845
14 -0.002081542081916
15 -0.000000000030295
16 0.34670241782341
17 -0.14303292457282
18 0.008385254410888
19 0.026491852046833
20 -0.003130575503375
21 0.34670241016645
22 -0.14303292119110
23 0.017300869797664
24 -0.020997360639893
25 -0.006459253377264
26 0.34670242363095
27 -0.14303292645503
28 -0.025686036528657
29 -0.005494491449376
30 0.009590063911764
31 -0.000000000010165
32 0.000000000052719
33 -0.000000000000400
34 -0.000000000000137
35 -0.000000000001774
 Sym=      3.1
 Ene=      -0.5664
 Spin= Alpha
 Occup=    2.000000
1 -0.000000000054290
2 0.000000003333770
3 0.000000003025951
4 -0.49801099102860
5 -0.34935816928638
6 0.18593420108999
7 0.091046924315153
8 0.063870049498322
9 -0.033992697535599
10 -0.017877459689853
11 0.020369625777257
12 -0.002492166087404
13 -0.000262536968348
14 0.007707450668416
15 0.000098208901586
16 0.50131868361751
17 -0.14026489459561
18 -0.001387068932943
19 0.019292649883321
20 0.000518005169011
21 0.088772330678624
22 -0.024837776822935
23 -0.006619955836631
24 -0.010413357991533
25 0.002471608676112
26 -0.59009101163723
27 0.16510266907002
28 0.020097579971497
29 -0.000397683249865
30 -0.007503666266914
31 0.000000000105577
32 -0.000000000534094
33 0.000000000001199
34 0.000000000000856
35 -0.000000000000918
 Sym=      4.1
 Ene=      -0.5664
 Spin= Alpha
 Occup=    2.000000
1 -0.000000000107462
2 -0.000000004127883
3 -0.000000002373172
4 0.32729105770521
5 -0.53158863111651
6 -0.12219530778208
7 -0.059835714105664
8 0.097185622439164
9 0.022339881543871
10 -0.000213153185731
11 0.000242750571680
12 -0.000029597385949
13 0.022035226264879
14 0.000091715670957
15 -0.008226643227657
16 0.39194193004334
17 -0.10966216685509
18 0.012776823877257
19 0.010084466676671
20 -0.004770165624729
21 -0.63012568095492
22 0.17630404384546
23 -0.015052904834955
24 0.015670133480097
25 0.005619883597787
26 0.23818374591774
27 -0.066641876233853
28 -0.005669788934069
29 -0.012848857710318
30 0.002116901426040
31 -0.000000000087268
32 0.000000000303239
33 0.000000000000263
34 0.000000000001567
35 0.000000000000802
 Sym=      5.1
 Ene=      -0.1453
 Spin= Alpha
 Occup=    1.000000
1 0.000000035214124
2 0.000004215345525
3 0.000001779647786
4 0.22182558762068
5 -0.000000007450304
6 0.59414339617791
7 0.025234774611245
8 0.000000000065001
9 0.067589457851928
10 -0.000000097151420
11 -0.000000155194309
12 0.000000252345729
13 0.000000000181558
14 0.000000175468912
15 -0.000000000111743
16 -0.000001668713397
17 0.000000125316002
18 0.004795433212873
19 -0.000000054144264
20 0.012844265116005
21 -0.000001669959769
22 0.000000126423597
23 0.004795414922244
24 0.000000042613815
25 0.012844271708241
26 -0.000001668134507
27 0.000000113931401
28 0.004795503880284
29 0.000000011326796
30 0.012844238842094
31 -0.70710732018236
32 0.000000596399730
33 -0.000003100711602
34 -0.000000078295150
35 0.000007902393287
 Sym=      6.1
 Ene=      -0.1453
 Spin= Alpha
 Occup=    1.000000
1 0.000000036441494
2 0.000004218700220
3 0.000001763423344
4 0.22182558691578
5 -0.000000007593672
6 0.59414339747924
7 0.025234764707762
8 -0.000000001383637
9 0.067589460554195
10 -0.000000098195514
11 -0.000000154732061
12 0.000000252927575
13 -0.000000000270195
14 0.000000176285622
15 0.000000000057215
16 -0.000001668310161
17 0.000000124699824
18 0.004795433566008
19 -0.000000054062790
20 0.012844265077368
21 -0.000001669378389
22 0.000000124237781
23 0.004795415197233
24 0.000000042741315
25 0.012844271698953
26 -0.000001667393512
27 0.000000132160143
28 0.004795502205582
29 0.000000010941603
30 0.012844239559057
31 0.70710732188417
32 -0.000000598478103
33 0.000003100711598
34 0.000000078295152
35 -0.000007902395214
 Sym=      7.1
 Ene=       0.2004
 Spin= Alpha
 Occup=    0.000000
1 -0.080645123505011
2 0.22149775264971
3 2.05269222158708
4 -0.000001039231786
5 0.000000003118723
6 -0.000002787854432
7 -0.000002237196190
8 0.000000004652093
9 -0.000006025806012
10 0.008575561675623
11 0.013547895334137
12 -0.022123457009760
13 0.000000000293108
14 -0.015378334739800
15 0.000000000626042
16 -0.055225993815226
17 -1.00926380745073
18 -0.005382541205053
19 -0.017005192520610
20 0.002009462662126
21 -0.055225997334924
22 -1.00926380098670
23 -0.011105499437239
24 0.013478263596568
25 0.004146150465211
26 -0.055225989111960
27 -1.00926384997374
28 0.016487914440394
29 0.003526929210014
30 -0.006155950826640
31 0.000000029433299
32 -0.000000028774202
33 -0.000000000000253
34 -0.000000000000043
35 -0.000000000002076
 Sym=      8.1
 Ene=       0.2705
 Spin= Alpha
 Occup=    0.000000
1 0.000000000294325
2 -0.000000004420764
3 0.000000010081147
4 0.41578516494701
5 -0.034808097822146
6 -0.15523489702785
7 1.16029851748885
8 -0.097136177748305
9 -0.43320165256747
10 0.014719419486843
11 -0.016771506818521
12 0.002052087331679
13 0.014421124081426
14 -0.006346185280867
15 -0.005384139583835
16 0.005735512778849
17 0.52909560664669
18 0.005482697747341
19 0.005154258731944
20 -0.002046967728785
21 0.016785547843831
22 1.54845006945727
23 0.014203257172716
24 -0.012998546197638
25 -0.005302787479575
26 -0.022521051617376
27 -2.07754568089199
28 0.024570737390781
29 0.004139270177226
30 -0.009173640628183
31 0.000000047603526
32 -0.000000047861320
33 -0.000000000000463
34 -0.000000000000112
35 -0.000000000002661
 Sym=      9.1
 Ene=       0.2705
 Spin= Alpha
 Occup=    0.000000
1 0.000000000073690
2 -0.000000001713486
3 -0.000000016304239
4 0.032609454749929
5 0.44381885604828
6 -0.012174853811380
7 0.091000611494078
8 1.23852990278492
9 -0.033975389173520
10 0.011700160827514
11 -0.013331104844056
12 0.001630944016542
13 -0.018142980672328
14 -0.005044112613355
15 0.006773243341027
16 0.022693676758665
17 2.09346962746023
18 0.007142708433345
19 0.025641401200072
20 -0.002666688095987
21 -0.016313943245455
22 -1.50494501482463
23 -0.009863518791835
24 0.016332881945420
25 0.003682531498300
26 -0.006379736006923
27 -0.58852459010026
28 0.006191801704761
29 0.005266350739688
30 -0.002311750413759
31 0.000000010441437
32 -0.000000010498252
33 -0.000000000000145
34 -0.000000000000053
35 -0.000000000000595
 Sym=     10.1
 Ene=       0.6171
 Spin= Alpha
 Occup=    0.000000
1 0.000000002825444
2 0.000000008852754
3 -0.000000040577512
4 0.35541790357135
5 -0.23524012653442
6 -0.13269656703502
7 -1.30825453101013
8 0.86589322962124
9 0.48844157911594
10 0.039114496922893
11 -0.044567281061478
12 0.005452784138585
13 0.10726036097258
14 -0.016863487277199
15 -0.040045532159969
16 0.30307018494023
17 -0.10736513903816
18 -0.062608311633827
19 0.021570375559868
20 0.023374962578858
21 -1.27645164740816
22 0.45219362943456
23 -0.012226447618692
24 -0.016838870635646
25 0.004565113344569
26 0.97338147456450
27 -0.34482846650378
28 -0.006255187949906
29 0.048939425436597
30 0.002335149339541
31 0.000000022080197
32 -0.000000024630033
33 -0.000000000000184
34 0.000000000000004
35 -0.000000000000014
 Sym=     11.1
 Ene=       0.6171
 Spin= Alpha
 Occup=    0.000000
1 0.000000000152904
2 0.000000000438840
3 -0.000000005376913
4 0.22038125255864
5 0.37938142616485
6 -0.082280135941521
7 -0.81119936335480
8 -1.39646164323973
9 0.30286420292562
10 0.087022405258582
11 -0.099153024224573
12 0.012130618965991
13 -0.048211560901067
14 -0.037516850977058
15 0.017999132577059
16 -1.29894175668161
17 0.46016090254308
18 -0.013312549914159
19 0.009124679690776
20 0.004970619680121
21 0.38700440792847
22 -0.13709953298242
23 -0.049295829331721
24 -0.044653968958366
25 0.018404677069772
26 0.91193734662187
27 -0.32306136087911
28 0.012327558292284
29 -0.051028027403554
30 -0.004602772122180
31 0.000000009699768
32 -0.000000010952555
33 -0.000000000000163
34 -0.000000000000092
35 0.000000000000034
 Sym=     12.1
 Ene=       0.6367
 Spin= Alpha
 Occup=    0.000000
1 0.000000006118334
2 0.000000046244527
3 -0.000000035973442
4 0.000000050796900
5 0.000000005338310
6 0.000000003326429
7 -0.000000055818997
8 -0.000000002272756
9 -0.000000005303339
10 -0.000000007533822
11 0.000000001340222
12 0.000000006193600
13 -0.000000002440133
14 0.000000006878084
15 0.000000000910756
16 -0.000000023827830
17 0.000000019072263
18 0.000000002875144
19 0.000000001560641
20 0.000000000021393
21 -0.000000031162771
22 0.000000022559733
23 0.000000002877480
24 0.000000000239900
25 0.000000000021549
26 -0.000000028739184
27 0.000000015633675
28 -0.000000012749294
29 -0.000000002676022
30 0.000000005856653
31 -2.11046170505769
32 2.33539078864452
33 -0.000000826361165
34 -0.000000020996677
35 0.000002106237386
 Sym=     13.1
 Ene=       0.7185
 Spin= Alpha
 Occup=    0.000000
1 -0.10680273861575
2 -0.095630209885531
3 0.56668216494408
4 0.000033264833376
5 0.000000005492622
6 0.000089132973499
7 -0.000042051029878
8 -0.000000009715655
9 -0.000112722675359
10 -0.085025003814081
11 -0.13432472194816
12 0.21934972576224
13 0.000000000028848
14 0.15247316441660
15 -0.000000006097756
16 -1.14397761891334
17 0.84350162955510
18 0.035148599461017
19 0.11104310204178
20 -0.013119384704391
21 -1.14397764086341
22 0.84350167442997
23 0.072519246134403
24 -0.088012423223580
25 -0.027071853663821
26 -1.14397761313162
27 0.84350159902312
28 -0.10766443336487
29 -0.023030678931139
30 0.040200376185116
31 0.000000056965512
32 -0.000000063652463
33 0.000000000000039
34 0.000000000000009
35 0.000000000000637
 Sym=     14.1
 Ene=       0.7264
 Spin= Alpha
 Occup=    0.000000
1 0.000007810051438
2 0.000011151767501
3 -0.000036391457541
4 0.51908870840175
5 -0.000000012199149
6 1.39034063608806
7 -0.62390089582425
8 0.000000013326211
9 -1.67107230807736
10 0.000005779020077
11 0.000009129673286
12 -0.000014908693364
13 0.000000001000321
14 -0.000010363490249
15 -0.000000000244954
16 0.000073927299685
17 -0.000056898005903
18 0.019005086689920
19 -0.000008265475101
20 0.050911700742279
21 0.000073921735177
22 -0.000056886702374
23 0.019002305503352
24 0.000006548922787
25 0.050912736582036
26 0.000073928532950
27 -0.000056895148769
28 0.019015716162157
29 0.000001713783600
30 0.050907733171217
31 0.000000029067310
32 -0.000000032697732
33 -0.000000000000012
34 0.000000000000004
35 0.000000000000532
 Sym=     15.1
 Ene=       0.8988
 Spin= Alpha
 Occup=    0.000000
1 0.000000009381345
2 0.000000036176714
3 -0.000000043161759
4 -0.66412667943285
5 1.03829633675391
6 0.24795410672134
7 1.22063337336043
8 -1.90833947759838
9 -0.45572790624251
10 0.001461109506015
11 -0.001665824162566
12 0.000204714656551
13 0.31474219441680
14 -0.000631529087856
15 -0.11750758991573
16 0.36100369039616
17 -1.20213030054267
18 -0.099931311110870
19 -0.14673643176470
20 0.037308685802287
21 -0.59526256242204
22 1.98220463746568
23 0.18246939763317
24 -0.20894165842304
25 -0.068123916373907
26 0.23425889527177
27 -0.78007434207081
28 0.091737261576670
29 0.083215828204459
30 -0.034251105328663
31 -0.000000025873181
32 0.000000029696064
33 -0.000000000000129
34 -0.000000000000100
35 -0.000000000000855
 Sym=     16.1
 Ene=       0.8988
 Spin= Alpha
 Occup=    0.000000
1 -0.000000003307757
2 -0.000000011448727
3 0.000000008414837
4 0.97271264465123
5 0.70890442204958
6 -0.36316577909517
7 -1.78779976716139
8 -1.30293275171756
9 0.66748149950021
10 -0.25535560431917
11 0.29095190897644
12 -0.035596304657275
13 0.001802603178259
14 0.11008915791513
15 -0.000671264537911
16 0.47892443185207
17 -1.59480251758847
18 -0.032700756317981
19 -0.23068573842676
20 0.012207577796635
21 0.073176135383973
22 -0.24367411851992
23 0.025575678110554
24 0.070754461803631
25 -0.009548979427524
26 -0.55210057853534
27 1.83847664587548
28 -0.24812718598815
29 -0.026094330360138
30 0.092640755671497
31 0.000000053313392
32 -0.000000061176989
33 0.000000000000371
34 0.000000000000059
35 0.000000000001776
 Sym=     17.1
 Ene=       1.0698
 Spin= Alpha
 Occup=    0.000000
1 0.80277539153999
2 3.65022754873016
3 -6.11634477430304
4 -0.000000611856045
5 -0.000000003367446
6 -0.000001642325247
7 0.000003076071317
8 0.000000010676777
9 0.000008282173303
10 -0.013281272724957
11 -0.020982098537183
12 0.034263371262140
13 -0.000000006510067
14 0.023816966152729
15 -0.000000000636555
16 0.14491365165877
17 0.87824530903985
18 0.055865905848234
19 0.17649790860279
20 -0.020855822825261
21 0.14491365726111
22 0.87824527343466
23 0.11526482643737
24 -0.13989169889791
25 -0.043032630336398
26 0.14491365267986
27 0.87824531948919
28 -0.17112885284543
29 -0.036606207770586
30 0.063893490023562
31 0.000000029409227
32 -0.000000034445004
33 0.000000000000578
34 0.000000000000080
35 0.000000000001931
 Sym=     18.1
 Ene=       1.2168
 Spin= Alpha
 Occup=    0.000000
1 0.000000002208151
2 0.000000009998811
3 -0.000000016279277
4 -0.000000300663010
5 0.000000990059614
6 0.000000117520694
7 -0.000000849814521
8 0.000002780732586
9 0.000000312228304
10 -0.11009920507095
11 -0.000001308277357
12 0.11010051334831
13 0.20829336346462
14 -0.14652577706223
15 0.55791329198627
16 0.000002747569863
17 -0.000000830804782
18 -0.11652205601544
19 0.000000072957983
20 -0.31210426017474
21 -0.000003148194164
22 0.000000957841929
23 0.13350903795985
24 -0.000000354469360
25 0.35760027925476
26 0.000000400505350
27 -0.000000119174790
28 -0.016985485241503
29 -0.000004618346046
30 -0.045496573143817
31 -0.000000000000093
32 0.000000000000111
33 0.000000000000081
34 -0.000000000000228
35 0.000000000000053
 Sym=     19.1
 Ene=       1.2168
 Spin= Alpha
 Occup=    0.000000
1 -0.000000000825448
2 -0.000000003680350
3 0.000000005835734
4 0.000000926173340
5 0.000000323076359
6 -0.000000351272030
7 0.000002604632737
8 0.000000904295693
9 -0.000000968015253
10 0.33799838771364
11 -0.000004536060373
12 -0.33799385165326
13 0.067853730631687
14 0.44981277158853
15 0.18173693320790
16 0.000002048434083
17 -0.000000623702572
18 -0.086892771481093
19 0.000001935744003
20 -0.23272631458812
21 0.000001354412958
22 -0.000000411542514
23 -0.057471402381565
24 -0.000003236166978
25 -0.15392455152587
26 -0.000003403648279
27 0.000001033441630
28 0.14435958275280
29 -0.000000295712712
30 0.38665257740606
31 0.000000000003228
32 -0.000000000003953
33 -0.000000000000274
34 -0.000000000000088
35 -0.000000000000152
 Sym=     20.1
 Ene=       1.5085
 Spin= Alpha
 Occup=    0.000000
1 -0.000000000000830
2 -0.000000000002641
3 0.000000000006619
4 -0.000000000000264
5 0.000000000000585
6 0.000000000000216
7 0.000000000002683
8 0.000000000000375
9 -0.000000000000765
10 0.000000000000256
11 -0.000000000000487
12 0.000000000000231
13 0.000000000000146
14 0.000000000000269
15 -0.000000000000020
16 -0.000000000000509
17 0.000000000000207
18 -0.000000000000010
19 -0.000000000000129
20 -0.000000000000025
21 0.000000000000668
22 -0.000000000000025
23 -0.000000000000017
24 0.000000000000112
25 -0.000000000000041
26 0.000000000002246
27 -0.000000000006402
28 0.000000000000315
29 0.000000000000076
30 0.000000000000031
31 -0.000002272615506
32 0.000000715540860
33 0.96160291052680
34 0.14461897928882
35 0.23324920855838
 Sym=     21.1
 Ene=       1.5085
 Spin= Alpha
 Occup=    0.000000
1 0.000000000000052
2 0.000000000000214
3 -0.000000000000427
4 -0.000000000000154
5 0.000000000001225
6 0.000000000000036
7 -0.000000000000077
8 -0.000000000000163
9 0.000000000000007
10 0.000000000000074
11 -0.000000000000082
12 0.000000000000008
13 -0.000000000000155
14 -0.000000000000053
15 0.000000000000197
16 -0.000000000000622
17 0.000000000000179
18 0.000000000000230
19 -0.000000000000172
20 -0.000000000000202
21 0.000000000000538
22 -0.000000000000014
23 -0.000000000000158
24 -0.000000000000291
25 0.000000000000162
26 0.000000000000031
27 0.000000000000199
28 -0.000000000000056
29 0.000000000000190
30 0.000000000000023
31 0.000000264608727
32 -0.000000083093031
33 -0.14180540965666
34 0.98947319477181
35 -0.028879449789226
 Sym=     22.1
 Ene=       1.5085
 Spin= Alpha
 Occup=    0.000000
1 -0.000000000001401
2 -0.000000000004333
3 0.000000000012356
4 -0.000000000002431
5 -0.000000000000334
6 0.000000000001193
7 0.000000000006734
8 0.000000000000915
9 -0.000000000001389
10 0.000000000000057
11 -0.000000000000491
12 0.000000000000434
13 0.000000000000145
14 0.000000000000483
15 -0.000000000000031
16 0.000000000001217
17 -0.000000000000537
18 0.000000000000341
19 -0.000000000000166
20 0.000000000000113
21 0.000000000001387
22 0.000000000000264
23 0.000000000000319
24 0.000000000000277
25 0.000000000000115
26 0.000000000003299
27 -0.000000000013446
28 0.000000000000710
29 0.000000000000147
30 -0.000000000000206
31 0.000016624219195
32 -0.000005234833713
33 -0.23497035608473
34 -0.005305436599013
35 0.97198805751790
 Sym=     23.1
 Ene=       1.6152
 Spin= Alpha
 Occup=    0.000000
1 0.000000000257965
2 0.000000000903761
3 -0.000000001467844
4 -0.000000002339345
5 -0.000000004944923
6 0.000000000702041
7 -0.000000005619402
8 0.000000013077391
9 0.000000002310675
10 -0.000000001049642
11 0.000000000359988
12 0.000000000689654
13 -0.000000005470658
14 0.000000001358362
15 0.000000001831497
16 0.000000003910704
17 0.000000003362414
18 0.52716088446612
19 -0.19011618096155
20 -0.19681742672484
21 -0.000000011593604
22 0.000000000762851
23 -0.41782610218264
24 -0.39225779232111
25 0.15599688272041
26 0.000000010322452
27 -0.000000005376891
28 -0.10933477548743
29 0.58237396865128