[Molden Format]
[Molpro variables]
_NUMVAR=  685.0000000000000    
_EV2006= 0.3674930886769165E-01
_EV= 0.3674932534394180E-01
_KJOULE= 0.3808798324128737E-03
_KJOULE/MOL= 0.3808798324128737E-03
_CM= 0.4556335267302901E-05
_CM-1= 0.4556335267302901E-05
_KCAL= 0.1593601117815568E-02
_KCAL/MOL= 0.1593601117815568E-02
_KELVIN2006= 0.3166828861084835E-05
_KELVIN= 0.3166814820820034E-05
_HERTZ2006= 0.1519829850815779E-15
_HERTZ= 0.1519829846011223E-15
_HZ2006= 0.1519829850815779E-15
_HZ= 0.1519829846011223E-15
_TOA2006= 0.5291772490000000    
_TOA= 0.5291772090000000    
_TOANG2006= 0.5291772490000000    
_TOANG= 0.5291772090000000    
_TORAD= 0.1745329251994330E-01
_TOCM=  219474.6306700000    
_TODEBYE=  2.541580000000000    
_TOEV2006=  27.21139610000000    
_TOEV=  27.21138390000000    
_TOHERTZ2006=  6579683899900000.    
_TOHERTZ=  6579683920700000.    
_TOHZ2006=  6579683899900000.    
_TOHZ=  6579683920700000.    
_TOK2006=  315773.3000000000    
_TOK=  315774.7000000000    
_TOKCAL=  627.5096000000000    
_TOKELVIN2006=  315773.3000000000    
_TOKELVIN=  315774.7000000000    
_TOKJ=  2625.500000000000    
_TOKJOULE=  2625.500000000000    
_ANG2006=  1.889725988578923    
_ANG=  1.889726131421507    
_ANGSTROM2006=  1.889725988578923    
_ANGSTROM=  1.889726131421507    
_IGNORE_UNDEF=  2.000000000000000    
_STRICTCHECK=  0.000000000000000    
_SEW_ONEEL=  0.000000000000000    
_CPPDONE=FALSE
_DKROLL_DONE=  0.000000000000000    
_FOCKDONE=  0.000000000000000    
_GRADONE=FALSE
_HESSDONE=FALSE
_INTDONE=TRUE
_SCFDONE=FALSE
_MODUL_CUDA=FALSE
_MODUL_SLATER=FALSE
_MODUL_MRCC=FALSE
_MRCC_EXEC=
_FITC_AO_SAVED=FALSE
_FITC_MO_SAVED=FALSE
_SHARED_FS=TRUE
_LSTYP=SEWARD
_INTYP=INTS
_GEOMTYP=ZMAT
_GRADTYP=ALASKA
_DIRECT=FALSE
_SYNCM=  0.000000000000000    
_BASIS=CC-PVDZ
_ZORIENT=  1.000000000000000    
_NELEC=  10.00000000000000    
_SPIN=  0.000000000000000    
!SPIN=  0.000000000000000    
_QSDSTEP=  0.000000000000000    
_QSDIRC=  0.000000000000000    
_PROGRAM=RS2
_CPUSTEP= 0.3000000000000003E-01
_SYSSTEP= 0.1000000000000001E-01
_WALLSTEP=  1.420000000000000    
!DFMP2=  0.000000000000000    
!DFSCF=  0.000000000000000    
!SCSGRD=  0.000000000000000    
_BASINP=  610.0000000000000    
_CPUTOT= 0.4500000000000000    
_DFTEXFAC=  1.000000000000000    
_DMX=-0.1037269460893184E-05
_DMY= 0.5872961562568705E-05
_DMZ= 0.1760038379069431    
_EMP2= -40.20139422055733    
_ENERGR= -40.06585443794400    
_ENERGU= -40.19289457170518    
_ENERGY= -40.20139422055733    
_ENUC=  11.23138984240292    
_GRADEXFAC=  9999.000000000000    
_GRADMETHOD=TRUE
!GRID_FREEZE= -1.000000000000000    
_ITERATIONS=  5.000000000000000    
_LASTNELEC=  2.000000000000000    
_LASTSPIN=  0.000000000000000    
_LASTSYM=  1.000000000000000    
_MPP_PROG=  1.000000000000000    
_NPROC_MPP=  4.000000000000000    
_NPROC_SMP=  1.000000000000000    
_NUMSTEP=  0.000000000000000    
_ORBITAL=  2141.200000000000    
_PI=  3.141592653589793    
!MCACT=  2.000000000000000    
!MCCLOSED=  4.000000000000000    
!MCFREEZE=  0.000000000000000    
!MCMS2=  0.000000000000000    
!MCNEL=  2.000000000000000    
!MCNSTSYM=  1.000000000000000    
!MCSTATE=  1.000000000000000    
!MCSYM=  1.000000000000000    
!MCWEIGHT=  1.000000000000000    
_SEIG_MIN= 0.1520598325044401E-01
_SEWPROP=TRUE
_STATUS=  1.000000000000000    
_SYSTOT= 0.1300000000000000    
_VERSION=  2010001.000000000    
_WALLTOT=  9.109999999999999    
_DATE=30-Aug-19
_LASTORB=MCSCF
_MACHINE=Linux-2.6.34-12-desktop/tt105(x86_64) 64 bit mpp version
_OUTPUT=/home/carlo/qm/combustion/test_diss/newalg/ch4_ch3_h_vrc_test1/dist_2.8/molpro.xml
_PGROUP=C1
_TIME=02:44:51
_LIBMOL=/programs/molpro2010p/bin/../lib/
!SURFREC=  0.000000000000000    
!POLYREC=  0.000000000000000    
!DIPREC=  0.000000000000000    
!VSCFREC=  0.000000000000000    
!VCIREC=  0.000000000000000    
!PVCIREC=  0.000000000000000    
!VMP2REC=  0.000000000000000    
!VMCSCFREC=  0.000000000000000    
!GAREC=  0.000000000000000    
!SCFORB=  21002.00000000000    
!MCORB=  21412.00000000000    
!CIOCC=  6.000000000000000    
!CICORE=  1.000000000000000    
!CICLOS=  4.000000000000000    
!CIISTSYM=  1.000000000000000    
!CIISTMS2=  0.000000000000000    
!CIISTNEL=  8.000000000000000    
!NEWMOL=  0.000000000000000    
!NEWSYM=  0.000000000000000    
_SLFILES=slscratch
_NGSSTO=  9.000000000000000    
_SIN=SIN
_COS=COS
_TAN=TAN
_ACOS=ACOS
_ASIN=ASIN
_ATAN=ATAN
_COSH=COSH
_SINH=SINH
_TANH=TANH
_ABS=ABS
_MOD=MOD
_ERF=ERF
_REFC=REFC
_ERFC=ERFC
_HYPOT=HYPOT
_J0=J0
_J1=J1
_JN=JN
_GAMMA=GAMMA
_LGAMMA=LGAMMA
_Y0=Y0
_Y1=Y1
_YN=YN
_EXP=EXP
_LOG=LOG
_LOG10=LOG10
_SQRT=SQRT
_INT=INT
_NINT=NINT
_MAX=MAX
_MIN=MIN
_COSMO=  0.000000000000000    
_COSMOIT=  0.000000000000000    
_COSMOES=  0.000000000000000    
_COSMOEDS=  0.000000000000000    
_COSMOEC=  0.000000000000000    
_COSMOEDCORR=  0.000000000000000    
_FEPSI=  1.000000000000000    
_SL_IsMM=  0.000000000000000    
_SL_NSYM=  0.000000000000000    
_SL_System_BitSw=  0.000000000000000    
_SL_Unique_atoms=  0.000000000000000    
_SL_GRAD=  0.000000000000000    
_SL_MAXUPD_Hess=  5.000000000000000    
_SL_N_PRINT_COD=  5.000000000000000    
_SL_PRINT_CODES=  0.000000000000000    
_SL_BasType=  0.000000000000000    
_SL_Energy_Pred=  0.000000000000000    
_SL_New_Coords=  0.000000000000000    
_SL_Total_Nuclea=  0.000000000000000    
_SL_Highest_Mltp=  0.000000000000000    
_SL_Ref_Geom=  0.000000000000000    
!LATTICE= -1.000000000000000    
!NEWLATTICE=  0.000000000000000    
!LATGRAD_VAR=FALSE
!SEW_LATTICE=  1.000000000000000    
!LOCAL=  0.000000000000000    
!SAVEDOM= -1.000000000000000    
!RESTDOM= -1.000000000000000    
!SAVEDOM_HF= -1.000000000000000    
!RESTDOM_HF= -1.000000000000000    
!HESSREC=  0.000000000000000    
!FREQREC=  0.000000000000000    
!NMODREC=  0.000000000000000    
!GTASKS=  0.000000000000000    
!HTASKS=  0.000000000000000    
!THRCHG= 0.1000000000000000    
!DEBUG= -1.000000000000000    
!CFIT_CPHF=  0.000000000000000    
!RDOMAUX_CPHF=  3.000000000000000    
!THRAO_CPHF= 0.1000000000000000E-09
!THRMO_CPHF= 0.1000000000000000E-08
!THROV_CPHF= 0.1000000000000000E-11
!THRSW_CPHF= 0.1000000000000000E-09
!THRPROD_CPHF= 0.1000000000000000E-08
!THRAOPR_CPHF= 0.1000000000000000E-11
!CFIT_SCFGRD=  0.000000000000000    
!RDOMAUX_SCFGRD=  5.000000000000000    
!THRAO_SCFGRD= 0.1000000000000000E-09
!THRMO_SCFGRD= 0.1000000000000000E-08
!THROV_SCFGRD= 0.1000000000000000E-11
!THRSW_SCFGRD= 0.1000000000000000E-09
!THRPROD_SCFGRD= 0.1000000000000000E-08
!THRAOPR_SCFGRD= 0.1000000000000000E-11
!LOCFIT_SCF=  0.000000000000000    
!LOCFIT_MP2= -1.000000000000000    
_RIDOM=  0.000000000000000    
!CC2_METHOD=  0.000000000000000    
_BASIS2006=FALSE
_SVDDEL= -1.000000000000000    
_SVDDELA= -1.000000000000000    
_SVDDELP= -1.000000000000000    
_SVDDELF= -1.000000000000000    
_SVDDELS= -1.000000000000000    
_SVDDEL_ABS= -1.000000000000000    
_SVDDELA_ABS= -1.000000000000000    
_SVDDELP_ABS= -1.000000000000000    
_SVDDELF_ABS= -1.000000000000000    
_SVDDELS_ABS= -1.000000000000000    
_MAXBASIS=  0.000000000000000    
!OPT_CONICAL=  0.000000000000000    
!CLEARSP_JGRID=  0.000000000000000    
RCH1=  1.090344710932337    
RCH2=  1.090344819347604    
RCH3=  1.090345591507264    
AHCC1=  119.7717601983598    
AHCC2=  119.7662936186956    
AHCC3=  92.76939152694952    
B1=  170.4220844155911    
B2= -94.78915549638739    
RCH4=  2.800000000000000    
GX1= 0.1015642136340152E-04
GY1= 0.3618737720015655E-05
GZ1= 0.3136547896366994    
GX2=  1.023258014234252    
GY2=  1.785648109414460    
GZ2= 0.4131721078971735    
GX3=  1.034686193638653    
GY3= -1.779031818637241    
GZ3= 0.4133813010582295    
GX4= -2.058018411645642    
GY4=-0.6589308642699354E-02
GZ4= 0.4133940795005122    
GX5=-0.4682404339886870E-04
GY5=-0.7010440246679739E-04
GZ5= -4.977578377523117    
CBSEN= -40.20139422055733    
[Atoms] Angs
C     1    6         0.0000053745        0.0000019150        0.1659789662
H     2    1         0.5414848201        0.9449242828        0.2186412629
H     3    1         0.5475323521       -0.9414230925        0.2187519631
H     4    1        -1.0890564391       -0.0034869120        0.2187587252
H     5    1        -0.0000247782       -0.0000370977       -2.6340210334
[GTO]
  1 0
 s    9  1.00
  0.6665000000D+04  0.6920001793D-03
  0.1000000000D+04  0.5329001381D-02
  0.2280000000D+03  0.2707700701D-01
  0.6471000000D+02  0.1017180264D+00
  0.2106000000D+02  0.2747400712D+00
  0.7495000000D+01  0.4485641162D+00
  0.2797000000D+01  0.2850740738D+00
  0.5215000000D+00  0.1520400394D-01
  0.1596000000D+00 -0.3191000827D-02
 s    9  1.00
  0.6665000000D+04 -0.1460000642D-03
  0.1000000000D+04 -0.1154000508D-02
  0.2280000000D+03 -0.5725002519D-02
  0.6471000000D+02 -0.2331201026D-01
  0.2106000000D+02 -0.6395502813D-01
  0.7495000000D+01 -0.1499810660D+00
  0.2797000000D+01 -0.1272620560D+00
  0.5215000000D+00  0.5445292395D+00
  0.1596000000D+00  0.5804962554D+00
 s    9  1.00
  0.6665000000D+04  0.0000000000D+00
  0.1000000000D+04  0.0000000000D+00
  0.2280000000D+03  0.0000000000D+00
  0.6471000000D+02  0.0000000000D+00
  0.2106000000D+02  0.0000000000D+00
  0.7495000000D+01  0.0000000000D+00
  0.2797000000D+01  0.0000000000D+00
  0.5215000000D+00  0.0000000000D+00
  0.1596000000D+00  0.1000000000D+01
 p    4  1.00
  0.9439000000D+01  0.3810902127D-01
  0.2002000000D+01  0.2094801169D+00
  0.5456000000D+00  0.5085572839D+00
  0.1517000000D+00  0.4688422617D+00
 p    4  1.00
  0.9439000000D+01  0.0000000000D+00
  0.2002000000D+01  0.0000000000D+00
  0.5456000000D+00  0.0000000000D+00
  0.1517000000D+00  0.1000000000D+01
 d    1  1.00
  0.5500000000D+00  0.1000000000D+01
  
  2 0
 s    4  1.00
  0.1301000000D+02  0.1968498999D-01
  0.1962000000D+01  0.1379769298D+00
  0.4446000000D+00  0.4781477569D+00
  0.1220000000D+00  0.5012397451D+00
 s    4  1.00
  0.1301000000D+02  0.0000000000D+00
  0.1962000000D+01  0.0000000000D+00
  0.4446000000D+00  0.0000000000D+00
  0.1220000000D+00  0.1000000000D+01
 p    1  1.00
  0.7270000000D+00  0.1000000000D+01
  
  3 0
 s    4  1.00
  0.1301000000D+02  0.1968498999D-01
  0.1962000000D+01  0.1379769298D+00
  0.4446000000D+00  0.4781477569D+00
  0.1220000000D+00  0.5012397451D+00
 s    4  1.00
  0.1301000000D+02  0.0000000000D+00
  0.1962000000D+01  0.0000000000D+00
  0.4446000000D+00  0.0000000000D+00
  0.1220000000D+00  0.1000000000D+01
 p    1  1.00
  0.7270000000D+00  0.1000000000D+01
  
  4 0
 s    4  1.00
  0.1301000000D+02  0.1968498999D-01
  0.1962000000D+01  0.1379769298D+00
  0.4446000000D+00  0.4781477569D+00
  0.1220000000D+00  0.5012397451D+00
 s    4  1.00
  0.1301000000D+02  0.0000000000D+00
  0.1962000000D+01  0.0000000000D+00
  0.4446000000D+00  0.0000000000D+00
  0.1220000000D+00  0.1000000000D+01
 p    1  1.00
  0.7270000000D+00  0.1000000000D+01
  
  5 0
 s    4  1.00
  0.1301000000D+02  0.1968498999D-01
  0.1962000000D+01  0.1379769298D+00
  0.4446000000D+00  0.4781477569D+00
  0.1220000000D+00  0.5012397451D+00
 s    4  1.00
  0.1301000000D+02  0.0000000000D+00
  0.1962000000D+01  0.0000000000D+00
  0.4446000000D+00  0.0000000000D+00
  0.1220000000D+00  0.1000000000D+01
 p    1  1.00
  0.7270000000D+00  0.1000000000D+01
 
 
[MO]
 Sym=      1.1
 Ene=     -11.2448
 Spin= Alpha
 Occup=    2.000000
1 1.00130532800661
2 0.007549760064578
3 -0.007642363809996
4 -0.000000006467732
5 0.000000005844908
6 0.000159103668798
7 0.000000070439631
8 -0.000000002173033
9 -0.000022933346772
10 0.000358526245348
11 0.000358714279937
12 -0.000717240525285
13 -0.000000001359907
14 -0.000000047006259
15 -0.000000071560900
16 -0.000598737214239
17 0.001498507605147
18 0.000251643612234
19 0.000439062908618
20 0.000041525420726
21 -0.000598747219250
22 0.001498517018979
23 0.000254454840437
24 -0.000437436318628
25 0.000041576315964
26 -0.000598572892426
27 0.001498456424895
28 -0.000506015101825
29 -0.000001619344374
30 0.000041572522673
31 -0.000181605337177
32 0.000322563386006
33 -0.000000000138747
34 -0.000000000380326
35 0.000090128031238
 Sym=      2.1
 Ene=      -0.9011
 Spin= Alpha
 Occup=    2.000000
1 -0.025836736800940
2 0.76192652776806
3 -0.14354021686255
4 -0.000005262579750
5 0.000001325432887
6 0.025380400402921
7 0.000003657928076
8 -0.000000202536116
9 -0.004880392283439
10 0.002004552719023
11 0.002004519465811
12 -0.004009072184834
13 0.000000012992369
14 -0.000000273055987
15 -0.000000395596875
16 0.34620620248620
17 -0.14397675449301
18 -0.013906338698475
19 -0.024266953302135
20 -0.000616679983302
21 0.34620645267277
22 -0.14397679329948
23 -0.014061666993057
24 0.024177226945924
25 -0.000619543380005
26 0.34620963192027
27 -0.14397637445326
28 0.027968813531595
29 0.000089628925286
30 -0.000619708248841
31 0.007123882534992
32 0.000238241729532
33 0.000000002547561
34 0.000000003931964
35 0.000622542028608
 Sym=      3.1
 Ene=      -0.5723
 Spin= Alpha
 Occup=    2.000000
1 0.000000014676391
2 -0.000000187169699
3 -0.000000110990164
4 0.000834296279486
5 -0.64106021646962
6 0.000037156748657
7 -0.000153763543673
8 0.11812439941883
9 -0.000006930819099
10 0.000170143523203
11 -0.000170481831856
12 0.000000338308653
13 -0.023624757291762
14 0.000006101278764
15 -0.003631823520391
16 -0.55083008425483
17 0.15686921656927
18 0.015105383405544
19 0.013985362570167
20 0.001134733889184
21 0.54962017076604
22 -0.15652452286222
23 -0.015208259187827
24 0.013830288040683
25 -0.001133903253886
26 0.001210021283987
27 -0.000344606166490
28 0.000082742610706
29 -0.012346543762591
30 -0.000001786365554
31 -0.000000754596204
32 0.000000145772646
33 0.000000610815263
34 -0.000475740465065
35 -0.000000021991065
 Sym=      4.1
 Ene=      -0.5723
 Spin= Alpha
 Occup=    2.000000
1 -0.000000170602035
2 0.000009861794178
3 0.000001291954434
4 0.64106129474281
5 0.000834391765786
6 -0.000023728415912
7 -0.11811717795928
8 -0.000153705229266
9 0.000004569528656
10 -0.020461478491920
11 0.020461522519308
12 -0.000000044027388
13 -0.000196325431007
14 0.003633617721690
15 0.000003354379869
16 0.31662207406607
17 -0.090166598637162
18 0.003673595394582
19 -0.015119242887086
20 -0.000652293361552
21 0.31871804617022
22 -0.090763398379821
23 0.003518679479530
24 0.015195189562859
25 -0.000658396955346
26 -0.63534405100869
27 0.18093179923277
28 -0.022657594428238
29 -0.000096074553516
30 0.001311297876092
31 0.000000628655421
32 -0.000000012390039
33 0.000475762489701
34 0.000000627591727
35 0.000000046023187
 Sym=      5.1
 Ene=      -0.2168
 Spin= Alpha
 Occup=    1.388351
1 -0.000202097954200
2 -0.011813425916487
3 -0.011134211686470
4 0.000022877104975
5 0.000035636998165
6 0.57700351158992
7 0.000002254087744
8 0.000003861447512
9 0.068876186102091
10 0.002807427175442
11 0.002807723389247
12 -0.005615150564688
13 0.000000073633835
14 -0.000000598077454
15 -0.000000409685194
16 0.028161148344765
17 -0.009229157127194
18 -0.000559148493351
19 -0.000975791637930
20 0.013194877707184
21 0.028158236685255
22 -0.009228695833071
23 -0.000565321670767
24 0.000973622346505
25 0.013194680412820
26 0.028156738815890
27 -0.009228821441393
28 0.001125875673985
29 0.000004393986372
30 0.013194378512228
31 -0.65160858087151
32 -0.038811584340555
33 -0.000000000198905
34 -0.000000011592307
35 0.000223267192159
 Sym=      6.1
 Ene=      -0.0596
 Spin= Alpha
 Occup=    0.611649
1 0.002777775082735
2 -0.054174399222239
3 -0.033596532806672
4 0.000024546521059
5 0.000038418628140
6 0.68181437734420
7 0.000002849284433
8 0.000004607835916
9 0.080517666112356
10 0.001948229952098
11 0.001948212902327
12 -0.003896442854425
13 -0.000000048070700
14 -0.000000631114450
15 -0.000000341449170
16 0.008414878338192
17 -0.000600707031389
18 0.000141317556706
19 0.000246592702973
20 0.013831054249115
21 0.008418357688159
22 -0.000600991609434
23 0.000142797758977
24 -0.000243944207636
25 0.013831002469995
26 0.008417913160984
27 -0.000601164246001
28 -0.000282616180257
29 -0.000000117379038
30 0.013830656609535
31 0.78412922072918
32 -0.049697670771170
33 0.000000015147472
34 0.000000040997783
35 -0.001512778660274
 Sym=      7.1
 Ene=       0.2001
 Spin= Alpha
 Occup=    0.000000
1 -0.081411083461144
2 0.21663226780707
3 2.05827479115261
4 0.000000304059639
5 0.000000855940768
6 0.045707177409296
7 -0.000015257940730
8 0.000000000656386
9 0.042605916641141
10 0.012697603790588
11 0.012700534661919
12 -0.025398138452507
13 -0.000000064233039
14 -0.000001877346673
15 -0.000002668246120
16 -0.063458707970523
17 -1.00496894043763
18 0.008536179678978
19 0.014893678521848
20 0.002420685785332
21 -0.063456804841947
22 -1.00498017519001
23 0.008631552267625
24 -0.014838451487180
25 0.002422473353787
26 -0.063446823078165
27 -1.00497531395997
28 -0.017165653324052
29 -0.000054898243504
30 0.002422465311981
31 0.092809788961186
32 -0.021600643144057
33 -0.000000192932475
34 -0.000000444152007
35 -0.003182866882522
 Sym=      8.1
 Ene=       0.2676
 Spin= Alpha
 Occup=    0.000000
1 0.000000397152020
2 -0.000000026404961
3 -0.000007648703696
4 0.007894762716509
5 -0.44864453114900
6 0.000024726840327
7 0.021665302554765
8 -1.23126513307558
9 0.000072723171365
10 -0.000162922520477
11 0.000162430119193
12 0.000000492401283
13 -0.023581468636399
14 0.000089643849157
15 -0.005015133229921
16 0.024224399425910
17 1.84527151338436
18 -0.009650760675358
19 -0.021145994196739
20 -0.000418888555436
21 -0.024629582689023
22 -1.87618197850015
23 0.010071076292448
24 -0.021366456461811
25 0.000428225744879
26 0.000406979817355
27 0.030919751432897
28 0.000401215815770
29 -0.004172465205127
30 -0.000006911148858
31 -0.000005119263314
32 0.000000597424351
33 -0.000057783589608
34 0.003315036635899
35 0.000000099183750
 Sym=      9.1
 Ene=       0.2676
 Spin= Alpha
 Occup=    0.000000
1 -0.000000957398529
2 -0.000007734089492
3 0.000017024032384
4 -0.44865016031096
5 -0.007894616746257
6 0.000016495986575
7 -1.23121679474649
8 -0.021666130731622
9 0.000047868707329
10 0.020422859101020
11 -0.020421100448954
12 -0.000001758652066
13 -0.000188367446434
14 -0.005016457092020
15 -0.000086878495905
16 0.014475636862246
17 1.10102746021405
18 -0.009978876602801
19 -0.010198629862924
20 -0.000249999092691
21 0.013772854100067
22 1.04747617369345
23 -0.009758325762261
24 0.009523554714224
25 -0.000238965594917
26 -0.028224265787906
27 -2.14854738841345
28 -0.026950211576044
29 -0.000146433922938
30 0.000490612103973
31 0.000000075388673
32 -0.000001747036899
33 0.003313963703808
34 0.000058864680410
35 -0.000000152155754
 Sym=     10.1
 Ene=       0.6121
 Spin= Alpha
 Occup=    0.000000
1 -0.000020743272955
2 -0.000044559900645
3 0.000110614863122
4 -0.44558198768497
5 0.000066267007321
6 0.000017317320305
7 1.63798873297953
8 -0.000243514774818
9 -0.000024656576003
10 0.10892543751964
11 -0.10895975555876
12 0.000034318039117
13 0.001228139378828
14 -0.008988016123260
15 0.000008679777073
16 -0.66183021180260
17 0.23644447767467
18 0.052675214567577
19 -0.032559541741149
20 -0.001639449307322
21 -0.66956474330464
22 0.23920745865895
23 0.052246547986552
24 0.032796770326205
25 -0.001662413301696
26 1.33091006097332
27 -0.47529808611820
28 -0.004097773116518
29 -0.000252213574035
30 0.003295735109858
31 -0.000267956150522
32 0.000284690728196
33 0.020880703631975
34 -0.000003329470061
35 0.000006182495265
 Sym=     11.1
 Ene=       0.6121
 Spin= Alpha
 Occup=    0.000000
1 0.000000187981737
2 0.000000687374968
3 -0.000001765255742
4 -0.000066322671449
5 -0.44559044484238
6 0.000018211728870
7 0.000243901530559
8 1.63815078112369
9 -0.000085508838854
10 0.001064012173352
11 -0.001065148051675
12 0.000001135878323
13 -0.12580092093389
14 0.000006003721786
15 -0.008979616191415
16 -1.15498177053460
17 0.41237064433023
18 -0.032544041020026
19 0.014539557207614
20 -0.002861229837375
21 1.15051560578355
22 -0.41077527295876
23 0.032801550919471
24 0.014968706786076
25 0.002847529372359
26 0.004465269052686
27 -0.001593474285036
28 -0.000242490847785
29 0.071337170957181
30 0.000006444184523
31 -0.000021918398011
32 0.000016039077883
33 0.000002883684240
34 0.020881277339341
35 0.000003101047895
 Sym=     12.1
 Ene=       0.6451
 Spin= Alpha
 Occup=    0.000000
1 -0.063841472105119
2 -0.10021927075344
3 0.45391914334137
4 0.000100806719674
5 0.000020661438747
6 0.20995153458834
7 -0.000362287541304
8 -0.000025110510247
9 -0.023891282216648
10 -0.072905539966390
11 -0.072875959506600
12 0.14578149947299
13 -0.000000607008802
14 0.000010364776838
15 0.000012795516517
16 -0.56806245381296
17 0.32148659190856
18 -0.029106353672751
19 -0.050765830205367
20 0.002954517206449
21 -0.56808303089945
22 0.32150003615349
23 -0.029430450121616
24 0.050577000808179
25 0.002952261336942
26 -0.56845284680494
27 0.32157099439249
28 0.058513562111038
29 0.000187726167351
30 0.002950832733351
31 -1.75956883881948
32 1.93214246686558
33 -0.000004328797435
34 -0.000000195603726
35 0.015602153650996
 Sym=     13.1
 Ene=       0.7209
 Spin= Alpha
 Occup=    0.000000
1 -0.053812818404347
2 -0.009128561353469
3 0.31331980091211
4 -0.000005559416171
5 -0.000069174741086
6 -1.16492843551783
7 -0.000097665605771
8 0.000082135228005
9 1.39199836688866
10 -0.072228746892049
11 -0.072230247477540
12 0.14445899436959
13 0.000000881614730
14 0.000010570616322
15 0.000015297404508
16 -0.66242722285898
17 0.48284425207486
18 -0.029023643514268
19 -0.050636926128079
20 -0.038706608132442
21 -0.66243195119471
22 0.48284818857199
23 -0.029348401653772
24 0.050445671647146
25 -0.038713488289639
26 -0.66254052378166
27 0.48280969343459
28 0.058355296363110
29 0.000184446314451
30 -0.038714571769733
31 0.54295573387519
32 -0.50239928095630
33 -0.000001604681677
34 0.000000320182212
35 -0.038111049428397
 Sym=     14.1
 Ene=       0.7931
 Spin= Alpha
 Occup=    0.000000
1 0.034732732807447
2 -0.084862255868731
3 0.037363248146590
4 -0.000072326267212
5 -0.000037934544841
6 -0.89884620978538
7 0.000171392065181
8 0.000039038272720
9 1.19538036851456
10 0.088490566955104
11 0.088510217095441
12 -0.17700078405054
13 -0.000001282887652
14 -0.000014611107346
15 -0.000021393350105
16 0.74482041814570
17 -0.69964701318405
18 0.044786584988860
19 0.078146530194021
20 -0.031191443090141
21 0.74480771308608
22 -0.69964935490160
23 0.045288723676924
24 -0.077865386415851
25 -0.031177133921040
26 0.74486137590131
27 -0.69955275412846
28 -0.090065189096050
29 -0.000290884034404
30 -0.031176645662551
31 -1.09856985348482
32 1.43892525513173
33 0.000000130357000
34 -0.000001723645478
35 -0.11988005102024
 Sym=     15.1
 Ene=       0.8923
 Spin= Alpha
 Occup=    0.000000
1 0.000003442068843
2 0.000008928726482
3 -0.000007749415954
4 1.25716435340617
5 -0.008711803400646
6 -0.000053912403174
7 -2.31293251193809
8 0.016028045010654
9 0.000096323879249
10 0.28918373912243
11 -0.28917484084911
12 -0.000008898273313
13 0.005524286828956
14 -0.028820506258373
15 0.000219015620922
16 -0.29660608497263
17 0.98459640381187
18 -0.018506121215225
19 -0.15099059656064
20 -0.007981392030628
21 -0.30720832428216
22 1.01978692242433
23 -0.022586685233034
24 0.15485447069784
25 -0.008284763621515
26 0.60390983392235
27 -2.00447204868085
28 -0.28543341277715
29 -0.001601099481878
30 0.016277036091074
31 -0.000016050164961
32 0.000022561909481
33 -0.005724765600866
34 0.000041513659666
35 -0.000004654816576
 Sym=     16.1
 Ene=       0.8923
 Spin= Alpha
 Occup=    0.000000
1 -0.000000681719589
2 -0.000004951201329
3 0.000007879323062
4 -0.008711894563605
5 -1.25716243746938
6 0.000068390056847
7 0.016028326457635
8 2.31296202990584
9 -0.000127532611817
10 -0.004784970774241
11 0.004789181642554
12 -0.000004210868314
13 0.33390172778927
14 0.000180254747608
15 0.028796236512955
16 0.52605893098854
17 -1.74608256661776
18 0.15249536111143
19 0.19918540460557
20 0.014151600027798
21 -0.51992779546849
22 1.72575247032626
23 -0.15334211971212
24 0.19510157480176
25 -0.014010049388691
26 -0.006115793313658
27 0.020310837242340
28 0.003109582099549
29 -0.067746754848049
30 -0.000161123420874
31 -0.000017815372540
32 0.000020973449238
33 0.000037806171218
34 0.005721434877889
35 0.000001206548294
 Sym=     17.1
 Ene=       1.0622
 Spin= Alpha
 Occup=    0.000000
1 0.79589430276052
2 3.60951361196481
3 -6.04476926766081
4 -0.000012936074340
5 -0.000002152187368
6 -0.000534651118362
7 0.000063141764060
8 0.000001148810438
9 -0.051175146262701
10 -0.017729567311355
11 -0.017759559779192
12 0.035489127090547
13 0.000000487036975
14 -0.000000488089703
15 0.000002201753648
16 0.16701947553959
17 0.83965650040581
18 -0.089985524444804
19 -0.15702733777533
20 -0.019401953570973
21 0.16701651310664
22 0.83966539789863
23 -0.090990875249170
24 0.15644534480191
25 -0.019418104365014
26 0.16703152956941
27 0.83968243107874
28 0.18097633176873
29 0.000579044469038
30 -0.019416330467654
31 -0.13716539390778
32 0.21059181389689
33 0.000001294299375
34 0.000001715690286
35 -0.13427023712354
 Sym=     18.1
 Ene=       1.2103
 Spin= Alpha
 Occup=    0.000000
1 0.000001460090349
2 0.000005658588946
3 -0.000009220867688
4 0.000032489222914
5 -0.010882295047162
6 -0.000002262379911
7 0.000088113499179
8 -0.029700132953252
9 0.000007242913755
10 0.000314618083125
11 -0.000250847844849
12 -0.000063770238276
13 -0.054656447391462
14 -0.001854521889258
15 0.62421179769730
16 0.028679010509834
17 -0.007201723509591
18 -0.025855834989404
19 0.001950081524263
20 0.35656405598253
21 -0.028664653523753
22 0.007195281532394
23 0.025857496600652
24 0.002086119296014
25 -0.35646990340737
26 -0.000004133976886
27 -0.000000787714039
28 -0.000153032221890
29 0.046823081580688
30 -0.000097467955353
31 -0.000021539231941
32 0.000027867056529
33 0.000035913414541
34 -0.012118795341312
35 -0.000007751013022
 Sym=     19.1
 Ene=       1.2104
 Spin= Alpha
 Occup=    0.000000
1 0.000003313512489
2 0.000013963389843
3 -0.000022478262151
4 -0.010880313236657
5 -0.000032278608231
6 0.000003244525943
7 -0.029696919806831
8 -0.000088660278848
9 0.000004686743316
10 0.047393655989611
11 -0.047348931799657
12 -0.000044724189953
13 0.000399887485321
14 0.62421731840376
15 0.001860961045149
16 0.016548443731896
17 -0.004153575969269
18 0.031983469329362
19 -0.025751988247005
20 0.20574750624301
21 0.016561749995080
22 -0.004157386908410
23 0.031805763863907
24 0.025979701523801
25 0.20590850478379
26 -0.033098842827089
27 0.008310210849495
28 -0.012933163228450
29 -0.000076367104072
30 -0.41167296301719
31 -0.000014577548764
32 0.000019345361997
33 -0.012118843973404
34 -0.000036220912107
35 -0.000006788881643
 Sym=     20.1
 Ene=       1.5201
 Spin= Alpha
 Occup=    0.000000
1 -0.000002043002035
2 -0.000008952004159
3 0.000017381862073
4 -0.006207970016667
5 0.037428734461139
6 -0.000004353174528
7 -0.012798101061238
8 0.077333224968852
9 -0.000000977336979
10 0.009827283378929
11 -0.009824847050868
12 -0.000002436328061
13 0.072826987552277
14 -0.001663246680316
15 0.010010024334616
16 -0.098513653662743
17 0.011850503383866
18 0.027432625285322
19 -0.041286479518857
20 0.013733120046651
21 0.11890312707745
22 -0.014328608407006
23 -0.008040367867985
24 -0.035649621284110
25 -0.016569565205045
26 -0.020384544733374
27 0.002461401918819
28 0.004812008251911
29 -0.069136037685249
30 0.002845935937338
31 -0.000002757958000
32 0.000003453982184
33 -0.16191513193537
34 0.97713614776584
35 0.000002134566971
 Sym=     21.1
 Ene=       1.5201
 Spin= Alpha
 Occup=    0.000000
1 -0.000001282700319
2 -0.000005861526572
3 0.000008906703482
4 0.037435823643237
5 0.006197354172802
6 -0.000003983050198
7 0.077283414835713
8 0.012822425176541
9 -0.000001021801153
10 -0.063058835335194
11 0.063058970945990
12 -0.000000135610796
13 0.011350074325360
14 0.010012552560620
15 0.001654566355293
16 -0.080398036322857
17 0.009675731107631
18 -0.056091922897233
19 0.011275270975626
20 0.011209636703959
21 -0.045094474678159
22 0.005442224413461
23 -0.061735557734486
24 -0.024155993209803
25 0.006290641956809
26 0.12549756550478
27 -0.015128044793268
28 -0.028225172669263
29 -0.011321128981243
30 -0.017491851756910
31 -0.000001995661163
32 0.000002501570698
33 0.97713914000235
34 0.16191523361139
35 -0.000000148857684
 Sym=     22.1
 Ene=       1.5695
 Spin= Alpha
 Occup=    0.000000
1 0.12554945604348
2 0.55519285865469
3 -0.84179261228307
4 -0.000006607088573
5 -0.000009925387209
6 -0.34388657676392
7 0.000030839351466
8 0.000043832024215
9 0.32935555468758
10 0.064718721389960
11 0.064739615849978
12 -0.12945833723994
13 0.000020714241007
14 -0.000006016269159
15 -0.000009667615080
16 0.047622632496801
17 0.051579021604972
18 -0.011126604599214
19 -0.019419918700653
20 0.13031939677614
21 0.047696696078064
22 0.051558736107680
23 -0.011261631978959
24 0.019338179253741
25 0.13030311854405
26 0.047701020994380
27 0.051557844818424
28 0.022378220502324
29 0.000057478006327
30 0.13029569273370
31 -0.14521029713888
32 0.22100169869122
33 -0.000003020059308
34 -0.000008231538690
35 0.95499458724987
 Sym=     23.1
 Ene=       1.6115
 Spin= Alpha
 Occup=    0.000000
1 -0.000000003482928
2 -0.000000015270967
3 0.000000022950950
4 0.000000152324174
5 -0.000015521046087
6 0.000000012318040
7 -0.000001849002798
8 0.000260294470206
9 -0.000000025413210
10 -0.000000121494377
11 0.000000118574382
12 0.000000002919995
13 0.000116072556375
14 -0.000000072449924
15 0.000009431524660
16 -0.000243725592246
17 0.000056458625242
18 0.51544112042864
19 -0.29542565769580
20 0.000012126015505
21 0.000244907416441
22 -0.000056778580492
23 -0.51353569122637
24 -0.29872441849973
25 0.000022658859750
26 -0.000001187563710
27 0.000000318075310
28 -0.001904113467514
29 0.59393807728342
30 -0.000034787776306
31 0.000000004423313
32 -0.000000007952565
33 0.000000440317540
34 -0.000059911994973
35 -0.000000028706177
 Sym=     24.1
 Ene=       1.7182
 Spin= Alpha
 Occup=    0.000000
1 -0.000003356256292
2 -0.000015281360643
3 0.000021019486401
4 -0.000144408898887
5 -0.034878180726684
6 0.000022917008150
7 0.004900346765654
8 1.17651943881181
9 -0.000082848651288
10 -0.005954411915052
11 0.005946199479886