[Molden Format]
[Molpro variables]
_NUMVAR=  703.0000000000000    
_EV2006= 0.3674930886769165E-01
_EV= 0.3674932534394180E-01
_KJOULE= 0.3808798324128737E-03
_KJOULE/MOL= 0.3808798324128737E-03
_CM= 0.4556335267302901E-05
_CM-1= 0.4556335267302901E-05
_KCAL= 0.1593601117815568E-02
_KCAL/MOL= 0.1593601117815568E-02
_KELVIN2006= 0.3166828861084835E-05
_KELVIN= 0.3166814820820034E-05
_HERTZ2006= 0.1519829850815779E-15
_HERTZ= 0.1519829846011223E-15
_HZ2006= 0.1519829850815779E-15
_HZ= 0.1519829846011223E-15
_TOA2006= 0.5291772490000000    
_TOA= 0.5291772090000000    
_TOANG2006= 0.5291772490000000    
_TOANG= 0.5291772090000000    
_TORAD= 0.1745329251994330E-01
_TOCM=  219474.6306700000    
_TODEBYE=  2.541580000000000    
_TOEV2006=  27.21139610000000    
_TOEV=  27.21138390000000    
_TOHERTZ2006=  6579683899900000.    
_TOHERTZ=  6579683920700000.    
_TOHZ2006=  6579683899900000.    
_TOHZ=  6579683920700000.    
_TOK2006=  315773.3000000000    
_TOK=  315774.7000000000    
_TOKCAL=  627.5096000000000    
_TOKELVIN2006=  315773.3000000000    
_TOKELVIN=  315774.7000000000    
_TOKJ=  2625.500000000000    
_TOKJOULE=  2625.500000000000    
_ANG2006=  1.889725988578923    
_ANG=  1.889726131421507    
_ANGSTROM2006=  1.889725988578923    
_ANGSTROM=  1.889726131421507    
_IGNORE_UNDEF=  2.000000000000000    
_STRICTCHECK=  0.000000000000000    
_SEW_ONEEL=  0.000000000000000    
_CPPDONE=FALSE
_DKROLL_DONE=  0.000000000000000    
_FOCKDONE=  0.000000000000000    
_GRADONE=FALSE
_HESSDONE=FALSE
_INTDONE=TRUE
_SCFDONE=FALSE
_MODUL_CUDA=FALSE
_MODUL_SLATER=FALSE
_MODUL_MRCC=FALSE
_MRCC_EXEC=
_FITC_AO_SAVED=FALSE
_FITC_MO_SAVED=FALSE
_SHARED_FS=TRUE
_LSTYP=SEWARD
_INTYP=INTS
_GEOMTYP=ZMAT
_GRADTYP=ALASKA
_DIRECT=FALSE
_SYNCM=  0.000000000000000    
_BASIS=CC-PVDZ
_ZORIENT=  1.000000000000000    
_NELEC=  16.00000000000000    
_SPIN=  0.000000000000000    
!SPIN=  0.000000000000000    
_QSDSTEP=  0.000000000000000    
_QSDIRC=  0.000000000000000    
_PROGRAM=RS2
_CPUSTEP= 0.5999999999999983E-01
_SYSSTEP= 0.1000000000000001E-01
_WALLSTEP= 0.7500000000000000    
!DFMP2=  0.000000000000000    
!DFSCF=  0.000000000000000    
!SCSGRD=  0.000000000000000    
_BASINP=  610.0000000000000    
_CPUTOT=  1.890000000000000    
_DFTEXFAC=  1.000000000000000    
_DMX=-0.2328424043902007    
_DMY= 0.6698776419635166E-01
_DMZ=-0.7102688382373046E-02
_EMP2= -78.13756272453115    
_ENERGR= -77.88914734250781    
_ENERGU= -78.12114314501943    
_ENERGY= -78.13756272453115    
_ENUC=  29.34680443080645    
_GRADEXFAC=  9999.000000000000    
_GRADMETHOD=TRUE
!GRID_FREEZE= -1.000000000000000    
_ITERATIONS=  5.000000000000000    
_LASTNELEC=  2.000000000000000    
_LASTSPIN=  0.000000000000000    
_LASTSYM=  1.000000000000000    
_MPP_PROG=  1.000000000000000    
_NPROC_MPP=  4.000000000000000    
_NPROC_SMP=  1.000000000000000    
_NUMSTEP=  0.000000000000000    
_ORBITAL=  2142.200000000000    
_PI=  3.141592653589793    
!MCACT=  2.000000000000000    
!MCCLOSED=  7.000000000000000    
!MCFREEZE=  0.000000000000000    
!MCMS2=  0.000000000000000    
!MCNEL=  2.000000000000000    
!MCNSTSYM=  1.000000000000000    
!MCSTATE=  1.000000000000000    
!MCSYM=  1.000000000000000    
!MCWEIGHT=  1.000000000000000    
_SEIG_MIN= 0.3708202308982703E-02
_SEWPROP=TRUE
_STATUS=  1.000000000000000    
_SYSTOT= 0.3000000000000000    
_VERSION=  2010001.000000000    
_WALLTOT=  8.050000000000001    
_DATE=08-Sep-19
_LASTORB=MCSCF
_MACHINE=Linux-2.6.34-12-desktop/tt106(x86_64) 64 bit mpp version
_OUTPUT=/home/carlo/qm/combustion/barrierless/c2h4_c2h3_h/dist_10.0/molpro.xml
_PGROUP=C1
_TIME=12:51:39
_LIBMOL=/programs/molpro2010p/bin/../lib/
!SURFREC=  0.000000000000000    
!POLYREC=  0.000000000000000    
!DIPREC=  0.000000000000000    
!VSCFREC=  0.000000000000000    
!VCIREC=  0.000000000000000    
!PVCIREC=  0.000000000000000    
!VMP2REC=  0.000000000000000    
!VMCSCFREC=  0.000000000000000    
!GAREC=  0.000000000000000    
!SCFORB=  21002.00000000000    
!MCORB=  21422.00000000000    
!CIOCC=  9.000000000000000    
!CICORE=  2.000000000000000    
!CICLOS=  7.000000000000000    
!CIISTSYM=  1.000000000000000    
!CIISTMS2=  0.000000000000000    
!CIISTNEL=  12.00000000000000    
!NEWMOL=  1.000000000000000    
!NEWSYM=  1.000000000000000    
_SLFILES=slscratch
_NGSSTO=  9.000000000000000    
_SIN=SIN
_COS=COS
_TAN=TAN
_ACOS=ACOS
_ASIN=ASIN
_ATAN=ATAN
_COSH=COSH
_SINH=SINH
_TANH=TANH
_ABS=ABS
_MOD=MOD
_ERF=ERF
_REFC=REFC
_ERFC=ERFC
_HYPOT=HYPOT
_J0=J0
_J1=J1
_JN=JN
_GAMMA=GAMMA
_LGAMMA=LGAMMA
_Y0=Y0
_Y1=Y1
_YN=YN
_EXP=EXP
_LOG=LOG
_LOG10=LOG10
_SQRT=SQRT
_INT=INT
_NINT=NINT
_MAX=MAX
_MIN=MIN
_COSMO=  0.000000000000000    
_COSMOIT=  0.000000000000000    
_COSMOES=  0.000000000000000    
_COSMOEDS=  0.000000000000000    
_COSMOEC=  0.000000000000000    
_COSMOEDCORR=  0.000000000000000    
_FEPSI=  1.000000000000000    
_SL_IsMM=  0.000000000000000    
_SL_NSYM=  0.000000000000000    
_SL_System_BitSw=  0.000000000000000    
_SL_Unique_atoms=  0.000000000000000    
_SL_GRAD=  0.000000000000000    
_SL_MAXUPD_Hess=  5.000000000000000    
_SL_N_PRINT_COD=  5.000000000000000    
_SL_PRINT_CODES=  0.000000000000000    
_SL_BasType=  0.000000000000000    
_SL_Energy_Pred=  0.000000000000000    
_SL_New_Coords=  0.000000000000000    
_SL_Total_Nuclea=  0.000000000000000    
_SL_Highest_Mltp=  0.000000000000000    
_SL_Ref_Geom=  0.000000000000000    
!LATTICE= -1.000000000000000    
!NEWLATTICE=  0.000000000000000    
!LATGRAD_VAR=FALSE
!SEW_LATTICE=  1.000000000000000    
!LOCAL=  0.000000000000000    
!SAVEDOM= -1.000000000000000    
!RESTDOM= -1.000000000000000    
!SAVEDOM_HF= -1.000000000000000    
!RESTDOM_HF= -1.000000000000000    
!HESSREC=  0.000000000000000    
!FREQREC=  0.000000000000000    
!NMODREC=  0.000000000000000    
!GTASKS=  0.000000000000000    
!HTASKS=  0.000000000000000    
!THRCHG= 0.1000000000000000    
!DEBUG= -1.000000000000000    
!CFIT_CPHF=  0.000000000000000    
!RDOMAUX_CPHF=  3.000000000000000    
!THRAO_CPHF= 0.1000000000000000E-09
!THRMO_CPHF= 0.1000000000000000E-08
!THROV_CPHF= 0.1000000000000000E-11
!THRSW_CPHF= 0.1000000000000000E-09
!THRPROD_CPHF= 0.1000000000000000E-08
!THRAOPR_CPHF= 0.1000000000000000E-11
!CFIT_SCFGRD=  0.000000000000000    
!RDOMAUX_SCFGRD=  5.000000000000000    
!THRAO_SCFGRD= 0.1000000000000000E-09
!THRMO_SCFGRD= 0.1000000000000000E-08
!THROV_SCFGRD= 0.1000000000000000E-11
!THRSW_SCFGRD= 0.1000000000000000E-09
!THRPROD_SCFGRD= 0.1000000000000000E-08
!THRAOPR_SCFGRD= 0.1000000000000000E-11
!LOCFIT_SCF=  0.000000000000000    
!LOCFIT_MP2= -1.000000000000000    
_RIDOM=  0.000000000000000    
!CC2_METHOD=  0.000000000000000    
_BASIS2006=FALSE
_SVDDEL= -1.000000000000000    
_SVDDELA= -1.000000000000000    
_SVDDELP= -1.000000000000000    
_SVDDELF= -1.000000000000000    
_SVDDELS= -1.000000000000000    
_SVDDEL_ABS= -1.000000000000000    
_SVDDELA_ABS= -1.000000000000000    
_SVDDELP_ABS= -1.000000000000000    
_SVDDELF_ABS= -1.000000000000000    
_SVDDELS_ABS= -1.000000000000000    
_MAXBASIS=  0.000000000000000    
!OPT_CONICAL=  0.000000000000000    
!CLEARSP_JGRID=  0.000000000000000    
RCC1=  1.311000000000000    
RCC2=  1.088400000000000    
RCC3=  1.082300000000000    
RCH2=  1.079200000000000    
ACCC1=  119.6293000000000    
AHCC1=  122.8326000000000    
AHCC2=  118.4755000000000    
AHCC3=  131.8503000000000    
B1=  180.0002000000000    
B2=  179.9999000000000    
B3=  179.9999000000000    
RCH1=  1.800000000000000    
GX1= 0.1580236119968391    
GY1= -1.294233752246070    
GZ1=-0.5777838114808111    
GX2=-0.4359612400734652E-01
GY2=  1.146420728434335    
GZ2=-0.7718322268103086    
GX3=  1.600038527218667    
GY3=  2.369894729628582    
GZ3=-0.8559351804604131    
GX4= -1.880040368681781    
GY4=  2.075145462290020    
GZ4=-0.8597245206900268    
GX5= -1.080485120816139    
GY5= -2.908725084358795    
GZ5=-0.4594115192531117    
GX6=-0.3074914659648237E-02
GY6= 0.2250816313361088    
GZ6=  18.25761406612317    
RCC91=  1.300000000000000    
RCC92=  1.085200000000000    
RCC93=  1.090000000000000    
RCH91=  1.078600000000000    
ACCC91=  122.0177000000000    
AHCC91=  121.6338000000000    
AHCC92=  137.8727000000000    
B91=  179.9750000000000    
B92=  179.9847000000000    
AABS1=  89.89432200668105    
BABS1=  90.04874224321574    
RTS=  10.00000000000000    
CBSEN= -78.13756272453115    
[Atoms] Angs
C     1    6         0.0836224940       -0.6848790048       -0.3057500248
C     2    6        -0.0230700752        0.6066597214       -0.4084360236
H     3    1         0.8467039221        1.2540942786       -0.4529413899
H     4    1        -0.9948745151        1.0981196840       -0.4549466224
H     5    1        -0.5717681006       -1.5392310219       -0.2431101055
H     6    1        -0.0016271748        0.1191080695        9.6615132545
[GTO]
  1 0
 s    9  1.00
  0.6665000000D+04  0.6920001793D-03
  0.1000000000D+04  0.5329001381D-02
  0.2280000000D+03  0.2707700701D-01
  0.6471000000D+02  0.1017180264D+00
  0.2106000000D+02  0.2747400712D+00
  0.7495000000D+01  0.4485641162D+00
  0.2797000000D+01  0.2850740738D+00
  0.5215000000D+00  0.1520400394D-01
  0.1596000000D+00 -0.3191000827D-02
 s    9  1.00
  0.6665000000D+04 -0.1460000642D-03
  0.1000000000D+04 -0.1154000508D-02
  0.2280000000D+03 -0.5725002519D-02
  0.6471000000D+02 -0.2331201026D-01
  0.2106000000D+02 -0.6395502813D-01
  0.7495000000D+01 -0.1499810660D+00
  0.2797000000D+01 -0.1272620560D+00
  0.5215000000D+00  0.5445292395D+00
  0.1596000000D+00  0.5804962554D+00
 s    9  1.00
  0.6665000000D+04  0.0000000000D+00
  0.1000000000D+04  0.0000000000D+00
  0.2280000000D+03  0.0000000000D+00
  0.6471000000D+02  0.0000000000D+00
  0.2106000000D+02  0.0000000000D+00
  0.7495000000D+01  0.0000000000D+00
  0.2797000000D+01  0.0000000000D+00
  0.5215000000D+00  0.0000000000D+00
  0.1596000000D+00  0.1000000000D+01
 p    4  1.00
  0.9439000000D+01  0.3810902127D-01
  0.2002000000D+01  0.2094801169D+00
  0.5456000000D+00  0.5085572839D+00
  0.1517000000D+00  0.4688422617D+00
 p    4  1.00
  0.9439000000D+01  0.0000000000D+00
  0.2002000000D+01  0.0000000000D+00
  0.5456000000D+00  0.0000000000D+00
  0.1517000000D+00  0.1000000000D+01
 d    1  1.00
  0.5500000000D+00  0.1000000000D+01
  
  2 0
 s    9  1.00
  0.6665000000D+04  0.6920001793D-03
  0.1000000000D+04  0.5329001381D-02
  0.2280000000D+03  0.2707700701D-01
  0.6471000000D+02  0.1017180264D+00
  0.2106000000D+02  0.2747400712D+00
  0.7495000000D+01  0.4485641162D+00
  0.2797000000D+01  0.2850740738D+00
  0.5215000000D+00  0.1520400394D-01
  0.1596000000D+00 -0.3191000827D-02
 s    9  1.00
  0.6665000000D+04 -0.1460000642D-03
  0.1000000000D+04 -0.1154000508D-02
  0.2280000000D+03 -0.5725002519D-02
  0.6471000000D+02 -0.2331201026D-01
  0.2106000000D+02 -0.6395502813D-01
  0.7495000000D+01 -0.1499810660D+00
  0.2797000000D+01 -0.1272620560D+00
  0.5215000000D+00  0.5445292395D+00
  0.1596000000D+00  0.5804962554D+00
 s    9  1.00
  0.6665000000D+04  0.0000000000D+00
  0.1000000000D+04  0.0000000000D+00
  0.2280000000D+03  0.0000000000D+00
  0.6471000000D+02  0.0000000000D+00
  0.2106000000D+02  0.0000000000D+00
  0.7495000000D+01  0.0000000000D+00
  0.2797000000D+01  0.0000000000D+00
  0.5215000000D+00  0.0000000000D+00
  0.1596000000D+00  0.1000000000D+01
 p    4  1.00
  0.9439000000D+01  0.3810902127D-01
  0.2002000000D+01  0.2094801169D+00
  0.5456000000D+00  0.5085572839D+00
  0.1517000000D+00  0.4688422617D+00
 p    4  1.00
  0.9439000000D+01  0.0000000000D+00
  0.2002000000D+01  0.0000000000D+00
  0.5456000000D+00  0.0000000000D+00
  0.1517000000D+00  0.1000000000D+01
 d    1  1.00
  0.5500000000D+00  0.1000000000D+01
  
  3 0
 s    4  1.00
  0.1301000000D+02  0.1968498999D-01
  0.1962000000D+01  0.1379769298D+00
  0.4446000000D+00  0.4781477569D+00
  0.1220000000D+00  0.5012397451D+00
 s    4  1.00
  0.1301000000D+02  0.0000000000D+00
  0.1962000000D+01  0.0000000000D+00
  0.4446000000D+00  0.0000000000D+00
  0.1220000000D+00  0.1000000000D+01
 p    1  1.00
  0.7270000000D+00  0.1000000000D+01
  
  4 0
 s    4  1.00
  0.1301000000D+02  0.1968498999D-01
  0.1962000000D+01  0.1379769298D+00
  0.4446000000D+00  0.4781477569D+00
  0.1220000000D+00  0.5012397451D+00
 s    4  1.00
  0.1301000000D+02  0.0000000000D+00
  0.1962000000D+01  0.0000000000D+00
  0.4446000000D+00  0.0000000000D+00
  0.1220000000D+00  0.1000000000D+01
 p    1  1.00
  0.7270000000D+00  0.1000000000D+01
  
  5 0
 s    4  1.00
  0.1301000000D+02  0.1968498999D-01
  0.1962000000D+01  0.1379769298D+00
  0.4446000000D+00  0.4781477569D+00
  0.1220000000D+00  0.5012397451D+00
 s    4  1.00
  0.1301000000D+02  0.0000000000D+00
  0.1962000000D+01  0.0000000000D+00
  0.4446000000D+00  0.0000000000D+00
  0.1220000000D+00  0.1000000000D+01
 p    1  1.00
  0.7270000000D+00  0.1000000000D+01
  
  6 0
 s    4  1.00
  0.1301000000D+02  0.1968498999D-01
  0.1962000000D+01  0.1379769298D+00
  0.4446000000D+00  0.4781477569D+00
  0.1220000000D+00  0.5012397451D+00
 s    4  1.00
  0.1301000000D+02  0.0000000000D+00
  0.1962000000D+01  0.0000000000D+00
  0.4446000000D+00  0.0000000000D+00
  0.1220000000D+00  0.1000000000D+01
 p    1  1.00
  0.7270000000D+00  0.1000000000D+01
 
 
[MO]
 Sym=      1.1
 Ene=     -11.2505
 Spin= Alpha
 Occup=    2.000000
1 0.99686736262958
2 0.006741546511262
3 -0.007105017882818
4 -0.001440790478706
5 -0.000030147605896
6 -0.000008123632616
7 0.001368662026789
8 -0.000343275199078
9 0.000036942930264
10 -0.000518798678104
11 0.001317162175678
12 -0.000798363497574
13 0.000893694158016
14 -0.000068082661529
15 -0.000187354744575
16 0.091132302636418
17 -0.000918200181488
18 0.001721961567353
19 -0.000018771175216
20 0.000545184904811
21 -0.000042990007441
22 -0.000590972665481
23 -0.001529304591888
24 0.000116248811736
25 -0.000278175063510
26 0.000009605450982
27 0.000268569612528
28 0.000549003521826
29 -0.000048145406858
30 0.000027893652025
31 0.000095371246476
32 0.000837672119676
33 0.000058584929014
34 -0.000162604043400
35 0.000013264905580
36 0.000309127762132
37 -0.000000357555979
38 0.000278922082414
39 -0.000100873560848
40 0.000010214876621
41 -0.001805739152061
42 0.002463501430275
43 -0.000836902568280
44 -0.000493120476640
45 0.000032791122172
46 0.000000000000240
47 -0.000000000000750
48 -0.000000000000000
49 0.000000000000001
50 -0.000000000000003
 Sym=      2.1
 Ene=     -11.2398
 Spin= Alpha
 Occup=    2.000000
1 -0.092404840690954
2 -0.001663033992521
3 0.003582461747042
4 0.000257720675540
5 -0.000339783006212
6 0.000028613878985
7 -0.000066701523939
8 0.001417957484064
9 -0.000112430167650
10 -0.000055830428340
11 -0.000308023102975
12 0.000363853531315
13 -0.000161910006462
14 0.000009034994936
15 0.000060302248732
16 0.99727153865732
17 0.008638742835707
18 -0.009871735922404
19 0.000054306607240
20 -0.000000856956935
21 -0.000000136637578
22 -0.000145669373455
23 0.000685917659148
24 -0.000054528451583
25 0.000232197581568
26 0.000571850217257
27 -0.000804047798826
28 -0.000080955052332
29 0.000015768845900
30 -0.000126959625722
31 -0.000589833083206
32 0.001516988938851
33 0.000485007881950
34 0.000261187650756
35 -0.000016976563067
36 -0.000611681453590
37 0.001501148965664
38 -0.000542744257695
39 0.000164387925142
40 -0.000017331147275
41 0.000344367437271
42 0.000015171445362
43 0.000142315516258
44 0.000170631825350
45 -0.000012469967032
46 0.000000000000088
47 -0.000000000000340
48 0.000000000000000
49 0.000000000000000
50 -0.000000000000004
 Sym=      3.1
 Ene=      -1.0294
 Spin= Alpha
 Occup=    2.000000
1 -0.019702750711445
2 0.56858756234641
3 -0.12712865993732
4 -0.064139341642814
5 0.22724724011943
6 -0.018414516937527
7 0.016924346031983
8 -0.059794241956091
9 0.004840340749069
10 -0.012762963841468
11 0.022604516158730
12 -0.009841552317262
13 -0.004098205033445
14 0.000299180903880
15 -0.003005287481337
16 -0.025738575977387
17 0.65333075642467
18 -0.19723805166239
19 0.009539456242305
20 -0.18585786922669
21 0.014721147968709
22 -0.008583505866345
23 0.077360671243406
24 -0.006160250471546
25 -0.012213077005096
26 0.018509482593980
27 -0.006296405588883
28 -0.001725367779743
29 0.000084661456181
30 -0.002286253721626
31 0.21259363177055
32 -0.097149588210877
33 -0.015082592467840
34 -0.014117744231892
35 0.000999620351496
36 0.20766693785824
37 -0.10243094370774
38 0.017355734665916
39 -0.011457444897989
40 0.001041899462202
41 0.16446620821109
42 -0.071020823698562
43 0.006608268635008
44 0.013927531601215
45 -0.001051226508201
46 -0.000000000060324
47 0.000000000094015
48 -0.000000000000336
49 -0.000000000000461
50 0.000000000002572
 Sym=      4.1
 Ene=      -0.7641
 Spin= Alpha
 Occup=    2.000000
1 0.012550915598640
2 -0.51205474859475
3 0.094417282212811
4 0.16278674194415
5 0.20740685599089
6 -0.015171648937248
7 -0.039540472991492
8 -0.049934276362225
9 0.003655720428797
10 -0.004014137013111
11 0.001154508717694
12 0.002859628295417
13 -0.007323158457849
14 0.000519519398183
15 0.000100792980088
16 -0.011634703446387
17 0.38023632968211
18 -0.064244755222248
19 0.032841460600933
20 0.29862564924524
21 -0.023358552147215
22 -0.006795822684464
23 -0.067676173864561
24 0.005303112402632
25 0.013550946675881
26 -0.012351326339729
27 -0.001199620336151
28 -0.001733198721885
29 0.000267716167568
30 0.001007732151226
31 0.35115816317110
32 -0.13937415004621
33 -0.020298539044131
34 -0.009387152222852
35 0.000586484335144
36 0.28860946671665
37 -0.10289425316286
38 0.018091079678363
39 -0.004110379409573
40 0.000467662567441
41 -0.49200090385782
42 0.18389348191451
43 -0.017582004184199
44 -0.023471987088966
45 0.001725008342944
46 -0.000000000012259
47 -0.000000000007844
48 0.000000000000297
49 0.000000000000511
50 -0.000000000000795
 Sym=      5.1
 Ene=      -0.6215
 Spin= Alpha
 Occup=    2.000000
1 0.001775466518008
2 0.10071753348871
3 -0.061341327201880
4 0.18542202578490
5 0.48414907241694
6 -0.036809321223114
7 -0.051717885781678
8 -0.13547709414498
9 0.010301510168090
10 -0.010804929478490
11 0.009903975821098
12 0.000900953657393
13 -0.003175662975751
14 0.000149756803309
15 -0.000842620577548
16 0.002123075959533
17 -0.014443126536737
18 -0.019167500286074
19 0.35473525523400
20 -0.46853199212905
21 0.039746687181161
22 -0.072057850005022
23 0.10902383386588
24 -0.009171133741503
25 -0.016973552019986
26 0.015398802323384
27 0.001574749696602
28 -0.000759639216134
29 -0.000109929040682
30 -0.001267016768505
31 -0.008561002661423
32 -0.001636499424542
33 0.005833043776555
34 -0.008110494333589
35 0.000686062714614
36 -0.51260545172906
37 0.15557806276265
38 -0.020644641975136
39 0.004283477229893
40 -0.000503519851792
41 -0.39351302149003
42 0.11972062354728
43 -0.011730964491217
44 -0.009598327956908
45 0.000673221699975
46 0.000000000154801
47 -0.000000000287939
48 0.000000000000088
49 -0.000000000000558
50 0.000000000005088
 Sym=      6.1
 Ene=      -0.5784
 Spin= Alpha
 Occup=    2.000000
1 0.001634574635623
2 -0.038588599312897
3 -0.029010879268942
4 -0.025841664945377
5 0.32110985942682
6 -0.025582247868952
7 0.015730886905694
8 -0.093599229311176
9 0.007518159943423
10 -0.001127212210836
11 -0.001246352417824
12 0.002373564628659
13 -0.030708140771692
14 0.002394475938386
15 0.000096163949445
16 0.000265847415583
17 0.032079636150683
18 -0.006757598556867
19 -0.52842548872458
20 -0.31334091042008
21 0.020627802789069
22 0.10912069717870
23 0.061188191774741
24 -0.003980949727183
25 -0.004879306240902
26 0.005074643384047
27 -0.000195337143144
28 -0.024352139520971
29 0.001887228724849
30 -0.000668625240616
31 -0.59826326350687
32 0.16456191856658
33 0.015540869363956
34 0.013853599321019
35 -0.000977838432817
36 0.35696902305499
37 -0.090191151578778
38 0.006767788979271
39 -0.014767152965249
40 0.001221443756210
41 -0.28437224614779
42 0.066496841337350
43 -0.006616349053776
44 -0.004478672644627
45 0.000304362673711
46 0.000000000114051
47 -0.000000000243464
48 0.000000000003116
49 0.000000000003889
50 -0.000000000002112
 Sym=      7.1
 Ene=      -0.3875
 Spin= Alpha
 Occup=    2.000000
1 0.000000316754138
2 -0.000112012340274
3 -0.000013902480176
4 -0.004446845441406
5 0.045386586771646
6 0.57453662953447
7 -0.000017147226586
8 0.000286449826163
9 0.003447385903082
10 0.000100606646990
11 0.004733570218666
12 -0.004834176865656
13 -0.000879832061231
14 -0.007697539234539
15 0.034430254805478
16 0.000001106935326
17 0.000109010496550
18 -0.000000403474021
19 -0.004562913476715
20 0.046356096188036
21 0.58753005402399
22 -0.000137520491979
23 0.001361190654899
24 0.016971422876012
25 -0.000028625448911
26 -0.004568149077150
27 0.004596774526061
28 0.000439806937258
29 0.002310512469425
30 -0.033231927445046
31 -0.000031335535444
32 0.000005113893893
33 -0.000102217817880
34 0.001064286233534
35 0.013467573760661
36 -0.000020243288060
37 0.000007667827193
38 -0.000109338785970
39 0.001074296093377
40 0.013590244440428
41 0.000029933251157
42 -0.000011754274869
43 -0.000106815352515
44 0.001138282334825
45 0.014356793670584
46 -0.000000000657583
47 0.000000001488965
48 0.000000000000165
49 0.000000000000178
50 -0.000000000001038
 Sym=      8.1
 Ene=      -0.1570
 Spin= Alpha
 Occup=    1.000000
1 0.001609805709195
2 0.23178540966290
3 0.086388517241788
4 0.58203058647623
5 -0.19074072697739
6 0.019560736866733
7 0.031695655714794
8 -0.005421200320161
9 0.000679103892743
10 0.011857024633225
11 -0.010829627521822
12 -0.001027397111402
13 -0.015143138515049
14 0.001314372093411
15 0.000783378010558
16 -0.001492516109264
17 -0.079314525918495
18 0.027456836905949
19 -0.050996450334772
20 0.085763733273329
21 -0.007118361573388
22 -0.045009965184485
23 -0.030572589401498
24 0.002073404449252
25 0.004920605049934
26 -0.005536761616448
27 0.000616156566514
28 -0.030429580852520
29 0.002442193165441
30 0.000322878364130
31 -0.10724064397364
32 0.015153216632189
33 -0.001324344044347
34 0.002807206272323
35 -0.000230313465149
36 0.13827026883240
37 0.007864923888057
38 0.000082583243147
39 0.000471392765945
40 -0.000035459309256
41 -0.14780814395880
42 0.017656333581264
43 0.009501058147193
44 -0.007414149629910
45 0.000660324807333
46 -0.70710732238789
47 0.000000598193056
48 0.000010880113123
49 -0.000001422847976
50 -0.000017395464458
 Sym=      9.1
 Ene=      -0.1570
 Spin= Alpha
 Occup=    1.000000
1 0.001609806139207
2 0.23178541151395
3 0.086388512959430
4 0.58203058801012
5 -0.19074072740380
6 0.019560735708491
7 0.031695659240578
8 -0.005421194425277
9 0.000679104537603
10 0.011857024468584
11 -0.010829627516288
12 -0.001027396952295
13 -0.015143138941167
14 0.001314372124246
15 0.000783377978214
16 -0.001492515687225
17 -0.079314524882067
18 0.027456828366875
19 -0.050996450320014
20 0.085763733284691
21 -0.007118362734149
22 -0.045009967811654
23 -0.030572589802262
24 0.002073404637021
25 0.004920604876154
26 -0.005536761641934
27 0.000616156765780
28 -0.030429581018274
29 0.002442193167008
30 0.000322878516709
31 -0.10724064368536
32 0.015153219762231
33 -0.001324344310698
34 0.002807206132737
35 -0.000230313516347
36 0.13827026889074
37 0.007864925308504
38 0.000082583480717
39 0.000471392724744
40 -0.000035459363286
41 -0.14780814398361
42 0.017656341534815
43 0.009501058539339
44 -0.007414149206714
45 0.000660324668250
46 0.70710732068996
47 -0.000000598353078
48 -0.000010880113662
49 0.000001422847412
50 0.000017395464153
 Sym=     10.1
 Ene=       0.1759
 Spin= Alpha
 Occup=    0.000000
1 0.000020146913079
2 -0.000039444251415
3 -0.000423606702222
4 -0.003968102030034
5 0.041809123075333
6 0.52815171650221
7 -0.003915551052228
8 0.041591127414526
9 0.52500197477715
10 0.000089976785322
11 -0.003056950117286
12 0.002966973331964
13 -0.000381362774172
14 -0.007032248483461
15 -0.022253819989067
16 0.000015542294985
17 -0.000016859168118
18 -0.000336011664028
19 0.003944124260523
20 -0.039628877587499
21 -0.50067620804158
22 0.004179569431710
23 -0.042063677809303
24 -0.53209439857959
25 -0.000033441963078
26 -0.003626295910581
27 0.003659737873659
28 0.000408340058173
29 0.002695843022183
30 -0.026345330243747
31 0.000033702261464
32 -0.000032154401357
33 0.000142350365296
34 -0.001461650582357
35 -0.018470733908818
36 0.000132360265419
37 0.000246286210377
38 0.000144162098156
39 -0.001437116702994
40 -0.018200354626557
41 0.000146369018801
42 0.000385273888223
43 -0.000179393507956
44 0.001917614584323
45 0.024224286747468
46 -0.000000001750934
47 0.000000001685196
48 0.000000000000008
49 -0.000000000000048
50 -0.000000000000160
 Sym=     11.1
 Ene=       0.2124
 Spin= Alpha
 Occup=    0.000000
1 0.020913701727110
2 -0.074091357478063
3 -0.76872332968637
4 0.075740344847083
5 0.16523842524111
6 -0.012587845957088
7 0.23517901507033
8 0.36929117838660
9 -0.027628344104544
10 0.002880207322399
11 -0.008489890137146
12 0.005609682814747
13 -0.012550024111241
14 0.000974565376723
15 0.001208034979524
16 0.059325733055920
17 -0.13710961575653
18 -1.69937369579528
19 0.090896712845414
20 -0.23351686917891
21 0.019285389822378
22 0.044542589200568
23 -0.52125685575402
24 0.041831130201475
25 -0.017229891272926
26 -0.003795496975395
27 0.021025388248320
28 -0.007727666380730
29 0.000262220161238
30 0.002229111680551
31 0.030650834360318
32 1.04651175378488
33 -0.014197531734206
34 -0.012318238750268
35 0.000867394484295
36 0.020999071636119
37 1.37450374442990
38 0.016828076867348
39 -0.009487622185123
40 0.000884661001812
41 -0.035768638527894
42 1.06788539657831
43 0.002737993128789
44 0.016941887978115
45 -0.001323418518314
46 -0.000000017846429
47 0.000000017638792
48 -0.000000000000003
49 -0.000000000000053
50 -0.000000000001186
 Sym=     12.1
 Ene=       0.2249
 Spin= Alpha
 Occup=    0.000000
1 0.038927918292870
2 -0.15398501278082
3 -1.03024218499436
4 0.20213383689449
5 0.16544676877946
6 -0.011658502585389
7 0.36227384132099
8 0.57073330364901
9 -0.042516101459044
10 -0.013177006731706
11 0.002202674683940
12 0.010974332047766
13 -0.014894988852724
14 0.000970255281992
15 0.000698104003751
16 -0.027522805168724
17 0.16601807218179
18 0.68649075229759
19 0.17651056462868
20 0.060704959630652
21 -0.003384120805846
22 0.21589873187106
23 0.34144328962714
24 -0.025171819686882
25 0.014901997530047
26 -0.003591607594171
27 -0.011310389935877
28 -0.011572065437553
29 0.001143156824235
30 -0.000793945639226
31 -0.054842551840446
32 -1.30111991801435
33 0.014515999458457
34 0.004148136062580
35 -0.000214543586490
36 0.010055394192791
37 -0.13570877535056
38 -0.007366935533975
39 -0.001085709756825
40 0.000029401374308
41 0.084080723977121
42 1.78505737203342
43 0.018339224543375
44 0.015034596326155
45 -0.001056673491701
46 -0.000000008956971
47 0.000000008977548
48 -0.000000000000105
49 -0.000000000000239
50 -0.000000000000535
 Sym=     13.1
 Ene=       0.2691
 Spin= Alpha
 Occup=    0.000000
1 -0.021259867108702
2 0.070031147034401
3 0.78608114642216
4 -0.038228631625792
5 -0.064711357128218
6 0.004835511624030
7 -0.74327427039006
8 -0.26928613412833
9 0.015589234881287
10 0.006087380846202
11 0.011612145340032
12 -0.017699526186235
13 0.024260791872500
14 -0.001704822219690
15 -0.002504666380775
16 0.011354528028304
17 -0.017082664994392
18 -0.22730007718271
19 0.40313906043431
20 0.029036495747245
21 0.000869670265397
22 1.45708914376833
23 0.18689298053224
24 -0.003447666409137
25 -0.006793133720667
26 0.000785097562520
27 0.006008036158147
28 0.026758620646719
29 -0.002240982453980
30 0.000687142868485
31 0.028758593741155
32 -1.74797479472411
33 0.012874039742856
34 0.019018988931240
35 -0.001400627623401
36 -0.013072351023718
37 1.99275522716479
38 0.021100903572767
39 -0.017657119902421
40 0.001561174594820
41 0.065609763383117
42 -1.13871259210768
43 -0.010170900958756
44 -0.018352768031653
45 0.001372089264856
46 0.000000009012932
47 -0.000000009141500
48 -0.000000000000080
49 0.000000000000098
50 0.000000000000490
 Sym=     14.1
 Ene=       0.4623
 Spin= Alpha
 Occup=    0.000000
1 -0.040577955555746
2 0.19187501929681
3 4.12131393761564
4 0.14755344436885
5 0.24232031078092
6 -0.018096445243385
7 -0.085336610869178
8 3.13035520191758
9 -0.24751156494627
10 -0.040758705087969
11 0.075399067206547
12 -0.034640362118577
13 -0.007842342760250
14 0.000560411263294
15 -0.010162472045418
16 0.083550690472027
17 0.079414766780664
18 -4.06290914272444
19 -0.026373717171557
20 0.055303617415987
21 -0.004691429464794
22 -0.48553137111107
23 3.56504469068062
24 -0.28495037903235
25 -0.013724394420126
26 -0.047112878376513
27 0.060837272796639
28 -0.023725838852392
29 0.001195718022125
30 0.009718262891423
31 -0.28899092450653
32 -0.24584568379748
33 -0.024115984068180
34 -0.004930699138667
35 0.000198894732947
36 -0.21512632317333
37 -0.72309568604357
38 0.010700740952712
39 0.006903781288286
40 -0.000463337217936
41 -0.088465339966772
42 1.20694449364807
43 -0.015366270137055
44 -0.013590461886446
45 0.000961850508374
46 -0.000000008528116
47 0.000000009152555
48 -0.000000000000035
49 -0.000000000000073
50 -0.000000000000214
 Sym=     15.1
 Ene=       0.5898
 Spin= Alpha
 Occup=    0.000000
1 0.18616737917673
2 0.60101528141567
3 -1.17996500444357
4 -0.15971902035783
5 0.52399460203463
6 -0.042497261103073
7 0.21013627352129
8 -1.68199176011970
9 0.13419545016022
10 -0.033062017675643
11 0.10337957865751
12 -0.070317560981866
13 0.081382203123891
14 -0.006101068032633
15 -0.015304728881609
16 0.11216834163247
17 0.57407377612955
18 0.61871648688889
19 0.012486461819261
20 -0.74145754932524
21 0.058726231576480
22 0.18956272141724
23 0.54936790678268
24 -0.041977546952427
25 0.006760585047326
26 0.024473633425992
27 -0.031234218473318
28 -0.014215111269365
29 0.001478370977667
30 -0.005229275784451
31 -0.43553848384283
32 0.32497594538011
33 0.020649374307429
34 0.009528815820401
35 -0.000586460771632
36 0.14177330943575
37 0.052667763708012
38 -0.014070889223374
39 0.043236360003877
40 -0.003517921437593
41 0.62789568085970
42 -1.01781827813851
43 -0.021569447609144
44 -0.097445413572022
45 0.007526010909893