 Entering Gaussian System, Link 0=g09
 Input=run.inp
 Output=run.out
 Initial command:
 /soft/gaussian/09-e.01/g09/l1.exe "/blues/gpfs/home/elliott/Packages/PACC/moldriver/rcdriver/tmprundir/RXN/CH3.H2/MDUSDFXREFXETQ/0_0/2_1/UHFFFAOYSA-N/CH4.H/HXBDELFRWIQQII/0_0/1_2/UHFFFAOYSA-N/2/ezvlpJU/TS/RUN/OPTI/A00/Gau-163807.inp" -scrdir="/blues/gpfs/home/elliott/Packages/PACC/moldriver/rcdriver/tmprundir/RXN/CH3.H2/MDUSDFXREFXETQ/0_0/2_1/UHFFFAOYSA-N/CH4.H/HXBDELFRWIQQII/0_0/1_2/UHFFFAOYSA-N/2/ezvlpJU/TS/RUN/OPTI/A00/"
 Entering Link 1 = /soft/gaussian/09-e.01/g09/l1.exe PID=    163808.
  
 Copyright (c) 1988,1990,1992,1993,1995,1998,2003,2009,2015,
            Gaussian, Inc.  All Rights Reserved.
  
 This is part of the Gaussian(R) 09 program.  It is based on
 the Gaussian(R) 03 system (copyright 2003, Gaussian, Inc.),
 the Gaussian(R) 98 system (copyright 1998, Gaussian, Inc.),
 the Gaussian(R) 94 system (copyright 1995, Gaussian, Inc.),
 the Gaussian 92(TM) system (copyright 1992, Gaussian, Inc.),
 the Gaussian 90(TM) system (copyright 1990, Gaussian, Inc.),
 the Gaussian 88(TM) system (copyright 1988, Gaussian, Inc.),
 the Gaussian 86(TM) system (copyright 1986, Carnegie Mellon
 University), and the Gaussian 82(TM) system (copyright 1983,
 Carnegie Mellon University). Gaussian is a federally registered
 trademark of Gaussian, Inc.
  
 This software contains proprietary and confidential information,
 including trade secrets, belonging to Gaussian, Inc.
  
 This software is provided under written license and may be
 used, copied, transmitted, or stored only in accord with that
 written license.
  
 The following legend is applicable only to US Government
 contracts under FAR:
  
                    RESTRICTED RIGHTS LEGEND
  
 Use, reproduction and disclosure by the US Government is
 subject to restrictions as set forth in subparagraphs (a)
 and (c) of the Commercial Computer Software - Restricted
 Rights clause in FAR 52.227-19.
  
 Gaussian, Inc.
 340 Quinnipiac St., Bldg. 40, Wallingford CT 06492
  
  
 ---------------------------------------------------------------
 Warning -- This program may not be used in any manner that
 competes with the business of Gaussian, Inc. or will provide
 assistance to any competitor of Gaussian, Inc.  The licensee
 of this program is prohibited from giving any competitor of
 Gaussian, Inc. access to this program.  By using this program,
 the user acknowledges that Gaussian, Inc. is engaged in the
 business of creating and licensing software in the field of
 computational chemistry and represents and warrants to the
 licensee that it is not a competitor of Gaussian, Inc. and that
 it will not use this program in any manner prohibited above.
 ---------------------------------------------------------------
  

 Cite this work as:
 Gaussian 09, Revision E.01,
 M. J. Frisch, G. W. Trucks, H. B. Schlegel, G. E. Scuseria, 
 M. A. Robb, J. R. Cheeseman, G. Scalmani, V. Barone, B. Mennucci, 
 G. A. Petersson, H. Nakatsuji, M. Caricato, X. Li, H. P. Hratchian, 
 A. F. Izmaylov, J. Bloino, G. Zheng, J. L. Sonnenberg, M. Hada, 
 M. Ehara, K. Toyota, R. Fukuda, J. Hasegawa, M. Ishida, T. Nakajima, 
 Y. Honda, O. Kitao, H. Nakai, T. Vreven, J. A. Montgomery, Jr., 
 J. E. Peralta, F. Ogliaro, M. Bearpark, J. J. Heyd, E. Brothers, 
 K. N. Kudin, V. N. Staroverov, T. Keith, R. Kobayashi, J. Normand, 
 K. Raghavachari, A. Rendell, J. C. Burant, S. S. Iyengar, J. Tomasi, 
 M. Cossi, N. Rega, J. M. Millam, M. Klene, J. E. Knox, J. B. Cross, 
 V. Bakken, C. Adamo, J. Jaramillo, R. Gomperts, R. E. Stratmann, 
 O. Yazyev, A. J. Austin, R. Cammi, C. Pomelli, J. W. Ochterski, 
 R. L. Martin, K. Morokuma, V. G. Zakrzewski, G. A. Voth, 
 P. Salvador, J. J. Dannenberg, S. Dapprich, A. D. Daniels, 
 O. Farkas, J. B. Foresman, J. V. Ortiz, J. Cioslowski, 
 and D. J. Fox, Gaussian, Inc., Wallingford CT, 2013.
 
 ******************************************
 Gaussian 09:  ES64L-G09RevE.01 30-Nov-2015
                 5-Sep-2019 
 ******************************************
 %mem=20GB
 %NProcShared=10
 Will use up to   10 processors via shared memory.
 ----------------------------------------------------------------------
 #P b3lyp/6-31g* # SCF=(xqc) # POpt=(CALCFC,TS,NOEIGEN) # int=ultrafine
 ----------------------------------------------------------------------
 1/5=1,10=4,11=1,14=-1,26=4,38=1/1,3;
 2/12=2,17=6,18=5,29=3,40=1/2;
 3/5=1,6=6,7=1,11=2,16=1,25=1,30=1,71=2,74=-5,75=-5,140=1/1,2,3;
 4//1;
 5/5=2,8=3,13=1,38=5/2,8;
 8/6=4,10=90,11=11/1;
 11/6=1,8=1,9=11,15=111,16=1/1,2,10;
 10/6=1,13=1/2;
 6/7=2,8=2,9=2,10=2,28=1/1;
 7/10=1,18=20,25=1/1,2,3,16;
 1/5=1,10=4,11=1,14=-1,26=4/3(2);
 2/29=3/2;
 99//99;
 2/29=3/2;
 3/5=1,6=6,7=1,11=2,16=1,25=1,30=1,71=1,74=-5,75=-5/1,2,3;
 4/5=5,16=3,69=1/1;
 5/5=2,8=3,13=1,38=5/2,8;
 7//1,2,3,16;
 1/5=1,11=1,14=-1,26=4/3(-5);
 2/29=3/2;
 6/7=2,8=2,9=2,10=2,19=2,28=1/1;
 99/9=1/99;
 Leave Link    1 at Thu Sep  5 23:08:42 2019, MaxMem=  2684354560 cpu:         1.2
 (Enter /soft/gaussian/09-e.01/g09/l101.exe)
 --------
 comment:
 --------
 Symbolic Z-matrix:
 Charge =  0 Multiplicity = 2
 C
 H                    1    R1
 H                    1    R2       2    A2
 H                    1    R3       2    A3       3    D3       0
 H                    1    R4       2    A4       3    D4       0
 X                    5    R5       1    A5       2    D5       0
 H                    5    R6       6    A6       1    D6       0
       Variables:
  R1                    1.0828                   
  R2                    1.0828                   
  A2                  119.9198                   
  R3                    1.0828                   
  A3                  119.9199                   
  D3                  174.3624                   
  R4                    2.5656                   
  A4                   91.6333                   
  D4                  267.178                    
  A6                   89.9988                   
  D6                  180.0013                   
  R6                    0.8829                   
       Constants:
  A5                   90.                       
  D5                  180.                       
  R5                    1.                       
 
 NAtoms=      6 NQM=        6 NQMF=       0 NMMI=      0 NMMIF=      0
                NMic=       0 NMicF=      0.
                    Isotopes and Nuclear Properties:
 (Nuclear quadrupole moments (NQMom) in fm**2, nuclear magnetic moments (NMagM)
  in nuclear magnetons)

  Atom         1           2           3           4           5           6
 IAtWgt=          12           1           1           1           1           1
 AtmWgt=  12.0000000   1.0078250   1.0078250   1.0078250   1.0078250   1.0078250
 NucSpn=           0           1           1           1           1           1
 AtZEff=   0.0000000   0.0000000   0.0000000   0.0000000   0.0000000   0.0000000
 NQMom=    0.0000000   0.0000000   0.0000000   0.0000000   0.0000000   0.0000000
 NMagM=    0.0000000   2.7928460   2.7928460   2.7928460   2.7928460   2.7928460
 AtZNuc=   6.0000000   1.0000000   1.0000000   1.0000000   1.0000000   1.0000000
 Leave Link  101 at Thu Sep  5 23:08:42 2019, MaxMem=  2684354560 cpu:         0.8
 (Enter /soft/gaussian/09-e.01/g09/l103.exe)

 GradGradGradGradGradGradGradGradGradGradGradGradGradGradGradGradGradGrad
 Berny optimization.
 Initialization pass.
                       ----------------------------
                       !    Initial Parameters    !
                       ! (Angstroms and Degrees)  !
 ----------------------                            ----------------------
 !      Name          Value   Derivative information (Atomic Units)     !
 ------------------------------------------------------------------------
 !       R1          1.0828   calculate D2E/DX2 analytically            !
 !       R2          1.0828   calculate D2E/DX2 analytically            !
 !       A2        119.9198   calculate D2E/DX2 analytically            !
 !       R3          1.0828   calculate D2E/DX2 analytically            !
 !       A3        119.9199   calculate D2E/DX2 analytically            !
 !       D3        174.3624   calculate D2E/DX2 analytically            !
 !       R4          2.5656   calculate D2E/DX2 analytically            !
 !       A4         91.6333   calculate D2E/DX2 analytically            !
 !       D4        267.178    calculate D2E/DX2 analytically            !
 !       A6         89.9988   calculate D2E/DX2 analytically            !
 !       D6        180.0013   calculate D2E/DX2 analytically            !
 !       R6          0.8829   calculate D2E/DX2 analytically            !
 !       A5         90.0      frozen, calculate D2E/DX2 analytically    !
 !       D5        180.0      frozen, calculate D2E/DX2 analytically    !
 !       R5          1.0      frozen, calculate D2E/DX2 analytically    !
 ------------------------------------------------------------------------
 Trust Radius=3.00D-01 FncErr=1.00D-07 GrdErr=1.00D-06
 Number of steps in this run=     25 maximum allowed number of steps=    100.
 Search for a saddle point of order  1.
 GradGradGradGradGradGradGradGradGradGradGradGradGradGradGradGradGradGrad

 Leave Link  103 at Thu Sep  5 23:08:42 2019, MaxMem=  2684354560 cpu:         0.2
 (Enter /soft/gaussian/09-e.01/g09/l202.exe)
 ---------------------------------------------------------------------------------------------------
                            Z-MATRIX (ANGSTROMS AND DEGREES)
   CD    Cent   Atom    N1       Length/X        N2       Alpha/Y        N3        Beta/Z          J
 ---------------------------------------------------------------------------------------------------
      1      1  C 
      2      2  H        1   1.082800(     1)
      3      3  H        1   1.082800(     2)      2  119.920(     7)
      4      4  H        1   1.082800(     3)      2  119.920(     8)      3  174.362(    12)      0
      5      5  H        1   2.565600(     4)      2   91.633(     9)      3  267.178(    13)      0
      6         X        5   1.000000(     5)      1   90.000(    10)      2  180.000(    14)      0
      7      6  H        5   0.882900(     6)      6   89.999(    11)      1  180.001(    15)      0
 ---------------------------------------------------------------------------------------------------
                         Z-Matrix orientation:                         
 ---------------------------------------------------------------------
 Center     Atomic      Atomic             Coordinates (Angstroms)
 Number     Number       Type             X           Y           Z
 ---------------------------------------------------------------------
      1          6           0        0.000000    0.000000    0.000000
      2          1           0        0.000000    0.000000    1.082800
      3          1           0        0.938489    0.000000   -0.540087
      4          1           0       -0.933949   -0.092193   -0.540089
      5          1           0       -0.126262    2.561448   -0.073126
      6         -1           0       -0.124858    2.532980   -1.072720
      7          1           0       -0.169732    3.442917   -0.098310
 ---------------------------------------------------------------------
                    Distance matrix (angstroms):
                    1          2          3          4          5
     1  C    0.000000
     2  H    1.082800   0.000000
     3  H    1.082800   1.874706   0.000000
     4  H    1.082800   1.874707   1.874706   0.000000
     5  H    2.565600   2.813027   2.812963   2.812867   0.000000
     6  X    2.753598   3.328339   2.798284   2.798188   1.000000
     7  H    3.448500   3.643831   3.643762   3.643652   0.882900
                    6          7
     6  X    0.000000
     7  H    1.333970   0.000000
 This structure is nearly, but not quite of a higher symmetry.
 Consider Symm=Loose if the higher symmetry is desired.
 Stoichiometry    CH5(2)
 Framework group  C1[X(CH5)]
 Deg. of freedom    12
 Full point group                 C1      NOp   1
 Largest Abelian subgroup         C1      NOp   1
 Largest concise Abelian subgroup C1      NOp   1
                         Standard orientation:                         
 ---------------------------------------------------------------------
 Center     Atomic      Atomic             Coordinates (Angstroms)
 Number     Number       Type             X           Y           Z
 ---------------------------------------------------------------------
      1          6           0        0.421291   -0.158192   -0.295467
      2          1           0        0.815441    0.849753   -0.329361
      3          1           0       -0.227325   -0.511379   -1.087307
      4          1           0        0.748023   -0.840093    0.479591
      5          1           0       -1.586478    0.595724    1.112643
      6          1           0       -2.277408    0.855149    1.597233
 ---------------------------------------------------------------------
 Rotational constants (GHZ):    142.6807553     27.6125361     27.6125327
 Leave Link  202 at Thu Sep  5 23:08:42 2019, MaxMem=  2684354560 cpu:         0.2
 (Enter /soft/gaussian/09-e.01/g09/l301.exe)
 Standard basis: 6-31G(d) (6D, 7F)
 Ernie: Thresh=  0.10000D-02 Tol=  0.10000D-05 Strict=F.
 There are    25 symmetry adapted cartesian basis functions of A   symmetry.
 There are    25 symmetry adapted basis functions of A   symmetry.
    25 basis functions,    48 primitive gaussians,    25 cartesian basis functions
     6 alpha electrons        5 beta electrons
       nuclear repulsion energy        13.4013038797 Hartrees.
 IExCor=  402 DFT=T Ex+Corr=B3LYP ExCW=0 ScaHFX=  0.200000
 ScaDFX=  0.800000  0.720000  1.000000  0.810000 ScalE2=  1.000000  1.000000
 IRadAn=      5 IRanWt=     -1 IRanGd=            0 ICorTp=0 IEmpDi=  4
 NAtoms=    6 NActive=    6 NUniq=    6 SFac= 1.00D+00 NAtFMM=   60 NAOKFM=F Big=F
 Integral buffers will be    131072 words long.
 Raffenetti 2 integral format.
 Two-electron integral symmetry is turned on.
 Leave Link  301 at Thu Sep  5 23:08:42 2019, MaxMem=  2684354560 cpu:         0.7
 (Enter /soft/gaussian/09-e.01/g09/l302.exe)
 NPDir=0 NMtPBC=     1 NCelOv=     1 NCel=       1 NClECP=     1 NCelD=      1
         NCelK=      1 NCelE2=     1 NClLst=     1 CellRange=     0.0.
 One-electron integrals computed using PRISM.
 NBasis=    25 RedAO= T EigKep=  2.62D-02  NBF=    25
 NBsUse=    25 1.00D-06 EigRej= -1.00D+00 NBFU=    25
 Precomputing XC quadrature grid using
 IXCGrd= 4 IRadAn=           5 IRanWt=          -1 IRanGd=           0 AccXCQ= 0.00D+00.
 Generated NRdTot=       0 NPtTot=           0 NUsed=           0 NTot=          32
 NSgBfM=    25    25    25    25    25 MxSgAt=     6 MxSgA2=     6.
 Leave Link  302 at Thu Sep  5 23:08:42 2019, MaxMem=  2684354560 cpu:         1.7
 (Enter /soft/gaussian/09-e.01/g09/l303.exe)
 DipDrv:  MaxL=1.
 Leave Link  303 at Thu Sep  5 23:08:42 2019, MaxMem=  2684354560 cpu:         0.2
 (Enter /soft/gaussian/09-e.01/g09/l401.exe)
 ExpMin= 1.61D-01 ExpMax= 3.05D+03 ExpMxC= 4.57D+02 IAcc=3 IRadAn=         5 AccDes= 0.00D+00
 Harris functional with IExCor=  402 and IRadAn=       5 diagonalized for initial guess.
 HarFok:  IExCor=  402 AccDes= 0.00D+00 IRadAn=         5 IDoV= 1 UseB2=F ITyADJ=14
 ICtDFT=  3500011 ScaDFX=  1.000000  1.000000  1.000000  1.000000
 FoFCou: FMM=F IPFlag=           0 FMFlag=      100000 FMFlg1=           0
         NFxFlg=           0 DoJE=T BraDBF=F KetDBF=T FulRan=T
         wScrn=  0.000000 ICntrl=     500 IOpCl=  0 I1Cent=   200000004 NGrid=           0
         NMat0=    1 NMatS0=      1 NMatT0=    0 NMatD0=    1 NMtDS0=    0 NMtDT0=    0
 Petite list used in FoFCou.
 Harris En= -40.9983199786197    
 JPrj=0 DoOrth=F DoCkMO=F.
 Initial guess <Sx>= 0.0000 <Sy>= 0.0000 <Sz>= 0.5000 <S**2>= 0.7500 S= 0.5000
 Leave Link  401 at Thu Sep  5 23:08:42 2019, MaxMem=  2684354560 cpu:         2.0
 (Enter /soft/gaussian/09-e.01/g09/l502.exe)
 UHF open shell SCF:
 Using DIIS extrapolation, IDIIS=  1040.
 Integral symmetry usage will be decided dynamically.
 Keep R1 and R2 ints in memory in canonical form, NReq=976418.
 IVT=        8268 IEndB=        8268 NGot=  2684354560 MDV=  2684240343
 LenX=  2684240343 LenY=  2684239277
 Requested convergence on RMS density matrix=1.00D-08 within  64 cycles.
 Requested convergence on MAX density matrix=1.00D-06.
 Requested convergence on             energy=1.00D-06.
 No special actions if energy rises.
 FoFCou: FMM=F IPFlag=           0 FMFlag=           0 FMFlg1=           0
         NFxFlg=           0 DoJE=F BraDBF=F KetDBF=F FulRan=T
         wScrn=  0.000000 ICntrl=     600 IOpCl=  0 I1Cent=           0 NGrid=           0
         NMat0=    1 NMatS0=    325 NMatT0=    0 NMatD0=    1 NMtDS0=    0 NMtDT0=    0
 Symmetry not used in FoFCou.
 Integral accuracy reduced to 1.0D-05 until final iterations.

 Cycle   1  Pass 0  IDiag  1:
 E= -40.9589932277865    
 DIIS: error= 5.27D-02 at cycle   1 NSaved=   1.
 NSaved= 1 IEnMin= 1 EnMin= -40.9589932277865     IErMin= 1 ErrMin= 5.27D-02
 ErrMax= 5.27D-02  0.00D+00 EMaxC= 1.00D-01 BMatC= 1.53D-01 BMatP= 1.53D-01
 IDIUse=3 WtCom= 4.73D-01 WtEn= 5.27D-01
 Coeff-Com:  0.100D+01
 Coeff-En:   0.100D+01
 Coeff:      0.100D+01
 Gap=     0.228 Goal=   None    Shift=    0.000
 Gap=     0.430 Goal=   None    Shift=    0.000
 GapD=    0.228 DampG=1.000 DampE=0.500 DampFc=0.5000 IDamp=-1.
 Damping current iteration by 5.00D-01
 RMSDP=1.44D-02 MaxDP=1.36D-01              OVMax= 1.40D-01

 Cycle   2  Pass 0  IDiag  1:
 E= -40.9815242445471     Delta-E=       -0.022531016761 Rises=F Damp=T
 DIIS: error= 1.08D-02 at cycle   2 NSaved=   2.
 NSaved= 2 IEnMin= 2 EnMin= -40.9815242445471     IErMin= 2 ErrMin= 1.08D-02
 ErrMax= 1.08D-02  0.00D+00 EMaxC= 1.00D-01 BMatC= 6.70D-03 BMatP= 1.53D-01
 IDIUse=3 WtCom= 8.92D-01 WtEn= 1.08D-01
 Coeff-Com: -0.569D-02 0.101D+01
 Coeff-En:   0.000D+00 0.100D+01
 Coeff:     -0.508D-02 0.101D+01
 Gap=     0.309 Goal=   None    Shift=    0.000
 Gap=     0.355 Goal=   None    Shift=    0.000
 RMSDP=2.25D-03 MaxDP=1.56D-02 DE=-2.25D-02 OVMax= 9.07D-02

 Cycle   3  Pass 0  IDiag  1:
 E= -41.0048575768378     Delta-E=       -0.023333332291 Rises=F Damp=F
 DIIS: error= 2.01D-03 at cycle   3 NSaved=   3.
 NSaved= 3 IEnMin= 3 EnMin= -41.0048575768378     IErMin= 3 ErrMin= 2.01D-03
 ErrMax= 2.01D-03  0.00D+00 EMaxC= 1.00D-01 BMatC= 2.15D-04 BMatP= 6.70D-03
 IDIUse=3 WtCom= 9.80D-01 WtEn= 2.01D-02
 Coeff-Com: -0.240D-01 0.693D-01 0.955D+00
 Coeff-En:   0.000D+00 0.000D+00 0.100D+01
 Coeff:     -0.236D-01 0.679D-01 0.956D+00
 Gap=     0.309 Goal=   None    Shift=    0.000
 Gap=     0.336 Goal=   None    Shift=    0.000
 RMSDP=3.50D-04 MaxDP=2.97D-03 DE=-2.33D-02 OVMax= 4.95D-03

 Cycle   4  Pass 0  IDiag  1:
 E= -41.0049493557805     Delta-E=       -0.000091778943 Rises=F Damp=F
 DIIS: error= 3.28D-04 at cycle   4 NSaved=   4.
 NSaved= 4 IEnMin= 4 EnMin= -41.0049493557805     IErMin= 4 ErrMin= 3.28D-04
 ErrMax= 3.28D-04  0.00D+00 EMaxC= 1.00D-01 BMatC= 1.06D-05 BMatP= 2.15D-04
 IDIUse=3 WtCom= 9.97D-01 WtEn= 3.28D-03
 Coeff-Com:  0.340D-02-0.257D-01-0.158D+00 0.118D+01
 Coeff-En:   0.000D+00 0.000D+00 0.000D+00 0.100D+01
 Coeff:      0.339D-02-0.256D-01-0.157D+00 0.118D+01
 Gap=     0.310 Goal=   None    Shift=    0.000
 Gap=     0.335 Goal=   None    Shift=    0.000
 RMSDP=1.44D-04 MaxDP=1.01D-03 DE=-9.18D-05 OVMax= 1.44D-03

 Cycle   5  Pass 0  IDiag  1:
 E= -41.0049572746395     Delta-E=       -0.000007918859 Rises=F Damp=F
 DIIS: error= 1.24D-04 at cycle   5 NSaved=   5.
 NSaved= 5 IEnMin= 5 EnMin= -41.0049572746395     IErMin= 5 ErrMin= 1.24D-04
 ErrMax= 1.24D-04  0.00D+00 EMaxC= 1.00D-01 BMatC= 9.84D-07 BMatP= 1.06D-05
 IDIUse=3 WtCom= 9.99D-01 WtEn= 1.24D-03
 Coeff-Com:  0.946D-03-0.244D-02-0.593D-01-0.887D-02 0.107D+01
 Coeff-En:   0.000D+00 0.000D+00 0.000D+00 0.000D+00 0.100D+01
 Coeff:      0.945D-03-0.243D-02-0.592D-01-0.886D-02 0.107D+01
 Gap=     0.310 Goal=   None    Shift=    0.000
 Gap=     0.336 Goal=   None    Shift=    0.000
 RMSDP=4.17D-05 MaxDP=2.92D-04 DE=-7.92D-06 OVMax= 5.81D-04

 Cycle   6  Pass 0  IDiag  1:
 E= -41.0049579175254     Delta-E=       -0.000000642886 Rises=F Damp=F
 DIIS: error= 5.30D-05 at cycle   6 NSaved=   6.
 NSaved= 6 IEnMin= 6 EnMin= -41.0049579175254     IErMin= 6 ErrMin= 5.30D-05
 ErrMax= 5.30D-05  0.00D+00 EMaxC= 1.00D-01 BMatC= 9.15D-08 BMatP= 9.84D-07
 IDIUse=1 WtCom= 1.00D+00 WtEn= 0.00D+00
 Coeff-Com: -0.530D-05 0.157D-02 0.745D-03-0.972D-01 0.214D+00 0.881D+00
 Coeff:     -0.530D-05 0.157D-02 0.745D-03-0.972D-01 0.214D+00 0.881D+00
 Gap=     0.310 Goal=   None    Shift=    0.000
 Gap=     0.336 Goal=   None    Shift=    0.000
 RMSDP=1.09D-05 MaxDP=1.14D-04 DE=-6.43D-07 OVMax= 2.12D-04

 Cycle   7  Pass 0  IDiag  1:
 E= -41.0049579706397     Delta-E=       -0.000000053114 Rises=F Damp=F
 DIIS: error= 8.68D-06 at cycle   7 NSaved=   7.
 NSaved= 7 IEnMin= 7 EnMin= -41.0049579706397     IErMin= 7 ErrMin= 8.68D-06
 ErrMax= 8.68D-06  0.00D+00 EMaxC= 1.00D-01 BMatC= 3.10D-09 BMatP= 9.15D-08
 IDIUse=1 WtCom= 1.00D+00 WtEn= 0.00D+00
 Coeff-Com:  0.835D-06 0.122D-03 0.313D-02-0.456D-02-0.406D-01 0.434D-01
 Coeff-Com:  0.998D+00
 Coeff:      0.835D-06 0.122D-03 0.313D-02-0.456D-02-0.406D-01 0.434D-01
 Coeff:      0.998D+00
 Gap=     0.310 Goal=   None    Shift=    0.000
 Gap=     0.336 Goal=   None    Shift=    0.000
 RMSDP=2.31D-06 MaxDP=2.56D-05 DE=-5.31D-08 OVMax= 3.79D-05

 Initial convergence to 1.0D-05 achieved.  Increase integral accuracy.
 Cycle   8  Pass 1  IDiag  1:
 E= -41.0049581532257     Delta-E=       -0.000000182586 Rises=F Damp=F
 DIIS: error= 2.57D-06 at cycle   1 NSaved=   1.
 NSaved= 1 IEnMin= 1 EnMin= -41.0049581532257     IErMin= 1 ErrMin= 2.57D-06
 ErrMax= 2.57D-06  0.00D+00 EMaxC= 1.00D-01 BMatC= 4.08D-10 BMatP= 4.08D-10
 IDIUse=1 WtCom= 1.00D+00 WtEn= 0.00D+00
 Coeff-Com:  0.100D+01
 Coeff:      0.100D+01
 Gap=     0.310 Goal=   None    Shift=    0.000
 Gap=     0.336 Goal=   None    Shift=    0.000
 RMSDP=2.31D-06 MaxDP=2.56D-05 DE=-1.83D-07 OVMax= 1.41D-05

 Cycle   9  Pass 1  IDiag  1:
 E= -41.0049581535517     Delta-E=       -0.000000000326 Rises=F Damp=F
 DIIS: error= 1.45D-06 at cycle   2 NSaved=   2.
 NSaved= 2 IEnMin= 2 EnMin= -41.0049581535517     IErMin= 2 ErrMin= 1.45D-06
 ErrMax= 1.45D-06  0.00D+00 EMaxC= 1.00D-01 BMatC= 7.18D-11 BMatP= 4.08D-10
 IDIUse=1 WtCom= 1.00D+00 WtEn= 0.00D+00
 Coeff-Com: -0.150D+00 0.115D+01
 Coeff:     -0.150D+00 0.115D+01
 Gap=     0.310 Goal=   None    Shift=    0.000
 Gap=     0.336 Goal=   None    Shift=    0.000
 RMSDP=3.95D-07 MaxDP=4.60D-06 DE=-3.26D-10 OVMax= 7.69D-06

 Cycle  10  Pass 1  IDiag  1:
 E= -41.0049581536294     Delta-E=       -0.000000000078 Rises=F Damp=F
 DIIS: error= 7.07D-07 at cycle   3 NSaved=   3.
 NSaved= 3 IEnMin= 3 EnMin= -41.0049581536294     IErMin= 3 ErrMin= 7.07D-07
 ErrMax= 7.07D-07  0.00D+00 EMaxC= 1.00D-01 BMatC= 1.81D-11 BMatP= 7.18D-11
 IDIUse=1 WtCom= 1.00D+00 WtEn= 0.00D+00
 Coeff-Com: -0.186D+00 0.591D-01 0.113D+01
 Coeff:     -0.186D+00 0.591D-01 0.113D+01
 Gap=     0.310 Goal=   None    Shift=    0.000
 Gap=     0.336 Goal=   None    Shift=    0.000
 RMSDP=2.41D-07 MaxDP=2.64D-06 DE=-7.77D-11 OVMax= 5.05D-06

 Cycle  11  Pass 1  IDiag  1:
 E= -41.0049581536480     Delta-E=       -0.000000000019 Rises=F Damp=F
 DIIS: error= 2.16D-07 at cycle   4 NSaved=   4.
 NSaved= 4 IEnMin= 4 EnMin= -41.0049581536480     IErMin= 4 ErrMin= 2.16D-07
 ErrMax= 2.16D-07  0.00D+00 EMaxC= 1.00D-01 BMatC= 3.54D-12 BMatP= 1.81D-11
 IDIUse=1 WtCom= 1.00D+00 WtEn= 0.00D+00
 Coeff-Com: -0.351D-01-0.156D+00 0.399D+00 0.792D+00
 Coeff:     -0.351D-01-0.156D+00 0.399D+00 0.792D+00
 Gap=     0.310 Goal=   None    Shift=    0.000
 Gap=     0.336 Goal=   None    Shift=    0.000
 RMSDP=7.07D-08 MaxDP=7.96D-07 DE=-1.86D-11 OVMax= 1.24D-06

 Cycle  12  Pass 1  IDiag  1:
 E= -41.0049581536497     Delta-E=       -0.000000000002 Rises=F Damp=F
 DIIS: error= 6.15D-08 at cycle   5 NSaved=   5.
 NSaved= 5 IEnMin= 5 EnMin= -41.0049581536497     IErMin= 5 ErrMin= 6.15D-08
 ErrMax= 6.15D-08  0.00D+00 EMaxC= 1.00D-01 BMatC= 3.40D-13 BMatP= 3.54D-12
 IDIUse=1 WtCom= 1.00D+00 WtEn= 0.00D+00
 Coeff-Com:  0.116D-01-0.708D-01 0.952D-02 0.293D+00 0.757D+00
 Coeff:      0.116D-01-0.708D-01 0.952D-02 0.293D+00 0.757D+00
 Gap=     0.310 Goal=   None    Shift=    0.000
 Gap=     0.336 Goal=   None    Shift=    0.000
 RMSDP=1.73D-08 MaxDP=1.54D-07 DE=-1.74D-12 OVMax= 2.87D-07

 Cycle  13  Pass 1  IDiag  1:
 E= -41.0049581536498     Delta-E=       -0.000000000000 Rises=F Damp=F
 DIIS: error= 6.80D-09 at cycle   6 NSaved=   6.
 NSaved= 6 IEnMin= 6 EnMin= -41.0049581536498     IErMin= 6 ErrMin= 6.80D-09
 ErrMax= 6.80D-09  0.00D+00 EMaxC= 1.00D-01 BMatC= 1.72D-15 BMatP= 3.40D-13
 IDIUse=1 WtCom= 1.00D+00 WtEn= 0.00D+00
 Coeff-Com:  0.248D-02-0.102D-01-0.347D-02 0.392D-01 0.129D+00 0.843D+00
 Coeff:      0.248D-02-0.102D-01-0.347D-02 0.392D-01 0.129D+00 0.843D+00
 Gap=     0.310 Goal=   None    Shift=    0.000
 Gap=     0.336 Goal=   None    Shift=    0.000
 RMSDP=1.37D-09 MaxDP=1.60D-08 DE=-1.28D-13 OVMax= 3.19D-08

 SCF Done:  E(UB3LYP) =  -41.0049581536     A.U. after   13 cycles
            NFock= 13  Conv=0.14D-08     -V/T= 2.0131
 <Sx>= 0.0000 <Sy>= 0.0000 <Sz>= 0.5000 <S**2>= 0.7538 S= 0.5019
 <L.S>= 0.000000000000E+00
 KE= 4.047402769107D+01 PE=-1.207028144568D+02 EE= 2.582252473238D+01
 Annihilation of the first spin contaminant:
 S**2 before annihilation     0.7538,   after     0.7500
 Leave Link  502 at Thu Sep  5 23:08:43 2019, MaxMem=  2684354560 cpu:         7.2
 (Enter /soft/gaussian/09-e.01/g09/l508.exe)
 QCSCF skips out because SCF is already converged.
 Leave Link  508 at Thu Sep  5 23:08:43 2019, MaxMem=  2684354560 cpu:         0.0
 (Enter /soft/gaussian/09-e.01/g09/l801.exe)
 DoSCS=F DFT=T ScalE2(SS,OS)=  1.000000  1.000000
 Range of M.O.s used for correlation:     1    25
 NBasis=    25 NAE=     6 NBE=     5 NFC=     0 NFV=     0
 NROrb=     25 NOA=     6 NOB=     5 NVA=    19 NVB=    20
 Leave Link  801 at Thu Sep  5 23:08:43 2019, MaxMem=  2684354560 cpu:         0.2
 (Enter /soft/gaussian/09-e.01/g09/l1101.exe)
 Using compressed storage, NAtomX=     6.
 Will process      7 centers per pass.
 Leave Link 1101 at Thu Sep  5 23:08:43 2019, MaxMem=  2684354560 cpu:         1.3
 (Enter /soft/gaussian/09-e.01/g09/l1102.exe)
 Symmetrizing basis deriv contribution to polar:
 IMax=3 JMax=2 DiffMx= 0.00D+00
 Leave Link 1102 at Thu Sep  5 23:08:43 2019, MaxMem=  2684354560 cpu:         0.1
 (Enter /soft/gaussian/09-e.01/g09/l1110.exe)
 Forming Gx(P) for the SCF density, NAtomX=     6.
 Integral derivatives from FoFJK, PRISM(SPDF).
 Do as many integral derivatives as possible in FoFJK.
 G2DrvN: MDV=    2684354408.
 G2DrvN: will do     7 centers at a time, making    1 passes.
 Calling FoFCou, ICntrl=  3107 FMM=F I1Cent=   0 AccDes= 0.00D+00.
 FoFJK:  IHMeth= 1 ICntrl=    3107 DoSepK=F KAlg= 0 I1Cent=   0 FoldK=F
 IRaf=         0 NMat=   1 IRICut=       1 DoRegI=T DoRafI=F ISym2E= 0.
 FoFCou: FMM=F IPFlag=           0 FMFlag=      100000 FMFlg1=           0
         NFxFlg=           0 DoJE=F BraDBF=F KetDBF=F FulRan=T
         wScrn=  0.000000 ICntrl=    3107 IOpCl=  1 I1Cent=           0 NGrid=           0
         NMat0=    1 NMatS0=      1 NMatT0=    0 NMatD0=    1 NMtDS0=    0 NMtDT0=    0
 Symmetry not used in FoFCou.
 End of G2Drv F.D. properties file   721 does not exist.
 End of G2Drv F.D. properties file   722 does not exist.
 End of G2Drv F.D. properties file   788 does not exist.
 Leave Link 1110 at Thu Sep  5 23:08:44 2019, MaxMem=  2684354560 cpu:         8.7
 (Enter /soft/gaussian/09-e.01/g09/l1002.exe)
 Minotr:  UHF open shell wavefunction.
          IDoAtm=111111
          Direct CPHF calculation.
          Differentiating once with respect to nuclear coordinates.
          Requested convergence is 1.0D-08 RMS, and 1.0D-07 maximum.
          Secondary convergence is 1.0D-12 RMS, and 1.0D-12 maximum.
          NewPWx=T KeepS1=F KeepF1=F KeepIn=T MapXYZ=F SortEE=F KeepMc=T.
          MDV=    2684354446 using IRadAn=       1.
 Generate precomputed XC quadrature information.
 Keep R1 and R2 ints in memory in canonical form, NReq=967166.
 FoFCou: FMM=F IPFlag=           0 FMFlag=           0 FMFlg1=           0
         NFxFlg=           0 DoJE=F BraDBF=F KetDBF=F FulRan=T
         wScrn=  0.000000 ICntrl=     600 IOpCl=  0 I1Cent=           0 NGrid=           0
         NMat0=    1 NMatS0=    325 NMatT0=    0 NMatD0=    1 NMtDS0=    0 NMtDT0=    0
 Symmetry not used in FoFCou.
          Solving linear equations simultaneously, MaxMat=       0.
          There are    21 degrees of freedom in the 1st order CPHF.  IDoFFX=6 NUNeed=     0.
     15 vectors produced by pass  0 Test12= 1.02D-15 4.76D-09 XBig12= 9.02D-02 1.10D-01.
 AX will form    15 AO Fock derivatives at one time.
     15 vectors produced by pass  1 Test12= 1.02D-15 4.76D-09 XBig12= 2.65D-03 3.47D-02.
     15 vectors produced by pass  2 Test12= 1.02D-15 4.76D-09 XBig12= 1.66D-04 6.28D-03.
     15 vectors produced by pass  3 Test12= 1.02D-15 4.76D-09 XBig12= 2.95D-06 7.74D-04.
     13 vectors produced by pass  4 Test12= 1.02D-15 4.76D-09 XBig12= 2.93D-09 1.97D-05.
      9 vectors produced by pass  5 Test12= 1.02D-15 4.76D-09 XBig12= 4.11D-12 1.03D-06.
      2 vectors produced by pass  6 Test12= 1.02D-15 4.76D-09 XBig12= 4.94D-15 2.78D-08.
 InvSVY:  IOpt=1 It=  1 EMax= 1.33D-15
 Solved reduced A of dimension    84 with    15 vectors.
 End of Minotr F.D. properties file   721 does not exist.
 End of Minotr F.D. properties file   722 does not exist.
 End of Minotr F.D. properties file   788 does not exist.
 Leave Link 1002 at Thu Sep  5 23:08:45 2019, MaxMem=  2684354560 cpu:         5.2
 (Enter /soft/gaussian/09-e.01/g09/l601.exe)
 Copying SCF densities to generalized density rwf, IOpCl= 1 IROHF=0.

 **********************************************************************

            Population analysis using the SCF density.

 **********************************************************************

 Orbital symmetries:
 Alpha Orbitals:
       Occupied  (A) (A) (A) (A) (A) (A)
       Virtual   (A) (A) (A) (A) (A) (A) (A) (A) (A) (A) (A) (A)
                 (A) (A) (A) (A) (A) (A) (A)
 Beta  Orbitals:
       Occupied  (A) (A) (A) (A) (A)
       Virtual   (A) (A) (A) (A) (A) (A) (A) (A) (A) (A) (A) (A)
                 (A) (A) (A) (A) (A) (A) (A) (A)
 The electronic state is 2-A.
 Alpha  occ. eigenvalues --  -10.19786  -0.68694  -0.42148  -0.42148  -0.40087
 Alpha  occ. eigenvalues --   -0.22875
 Alpha virt. eigenvalues --    0.08080   0.11327   0.17837   0.17837   0.53984
 Alpha virt. eigenvalues --    0.53984   0.55140   0.62360   0.78578   0.90953
 Alpha virt. eigenvalues --    0.90953   0.96139   1.12173   1.64430   1.64430
 Alpha virt. eigenvalues --    2.00517   2.18172   2.18172   4.09127
  Beta  occ. eigenvalues --  -10.18398  -0.64705  -0.41202  -0.41202  -0.39740
  Beta virt. eigenvalues --   -0.06169   0.09307   0.12951   0.18386   0.18386
  Beta virt. eigenvalues --    0.54800   0.54800   0.60565   0.64940   0.80432
  Beta virt. eigenvalues --    0.91439   0.91439   0.98684   1.12772   1.71415
  Beta virt. eigenvalues --    1.71415   2.08992   2.19293   2.19293   4.12801
          Condensed to atoms (all electrons):
               1          2          3          4          5          6
     1  C    5.337452   0.380009   0.380009   0.380009   0.015203  -0.006065
     2  H    0.380009   0.510275  -0.029395  -0.029395   0.000027   0.000038
     3  H    0.380009  -0.029395   0.510275  -0.029395   0.000027   0.000038
     4  H    0.380009  -0.029395  -0.029395   0.510274   0.000027   0.000038
     5  H    0.015203   0.000027   0.000027   0.000027   0.612635   0.367461
     6  H   -0.006065   0.000038   0.000038   0.000038   0.367461   0.661816
          Atomic-Atomic Spin Densities.
               1          2          3          4          5          6
     1  C    1.144671  -0.009031  -0.009031  -0.009031   0.012855  -0.006600
     2  H   -0.009031  -0.043079   0.000965   0.000965  -0.000068   0.000021
     3  H   -0.009031   0.000965  -0.043079   0.000965  -0.000068   0.000021
     4  H   -0.009031   0.000965   0.000965  -0.043079  -0.000068   0.000021
     5  H    0.012855  -0.000068  -0.000068  -0.000068  -0.016160  -0.009471
     6  H   -0.006600   0.000021   0.000021   0.000021  -0.009471   0.055836
 Mulliken charges and spin densities:
               1          2
     1  C   -0.486617   1.123832
     2  H    0.168441  -0.050227
     3  H    0.168441  -0.050227
     4  H    0.168442  -0.050227
     5  H    0.004620  -0.012980
     6  H   -0.023327   0.039828
 Sum of Mulliken charges =   0.00000   1.00000
 Mulliken charges and spin densities with hydrogens summed into heavy atoms:
               1          2
     1  C    0.000000   1.000000
 APT charges:
               1
     1  C   -1.061496
     2  H    0.358597
     3  H    0.358591
     4  H    0.358582
     5  H   -0.572467
     6  H    0.558193
 Sum of APT charges =   0.00000
 APT charges with hydrogens summed into heavy atoms:
               1
     1  C    0.000000
 Electronic spatial extent (au):  <R**2>=             88.8706
 Charge=              0.0000 electrons
 Dipole moment (field-independent basis, Debye):
    X=              0.2960    Y=             -0.1112    Z=             -0.2076  Tot=              0.3783
 Quadrupole moment (field-independent basis, Debye-Ang):
   XX=            -10.2139   YY=             -9.3176   ZZ=             -9.6836
   XY=              0.3919   XZ=              0.7318   YZ=             -0.2749
 Traceless Quadrupole moment (field-independent basis, Debye-Ang):
   XX=             -0.4756   YY=              0.4208   ZZ=              0.0548
   XY=              0.3919   XZ=              0.7318   YZ=             -0.2749
 Octapole moment (field-independent basis, Debye-Ang**2):
  XXX=              1.8440  YYY=             -0.8266  ZZZ=             -2.1443  XYY=              1.4596
  XXY=              0.1981  XXZ=              0.2536  XZZ=              0.1652  YZZ=             -0.6739
  YYZ=             -0.5421  XYZ=             -0.8474
 Hexadecapole moment (field-independent basis, Debye-Ang**3):
 XXXX=            -68.5844 YYYY=            -24.2770 ZZZZ=            -42.8057 XXXY=              8.9260
 XXXZ=             16.5128 YYYX=             10.4930 YYYZ=             -7.6062 ZZZX=             18.5456
 ZZZY=             -6.3775 XXYY=            -15.1072 XXZZ=            -17.2546 YYZZ=            -10.9434
 XXYZ=             -1.5345 YYXZ=              6.2690 ZZXY=              2.7077
 N-N= 1.340130387965D+01 E-N=-1.207028144517D+02  KE= 4.047402769107D+01
  Exact polarizability:   0.000   0.000   0.000   0.000   0.000   0.000
 Approx polarizability:  19.674  -2.222  14.589  -4.152   1.559  16.667
                          Isotropic Fermi Contact Couplings
        Atom                 a.u.       MegaHertz       Gauss      10(-4) cm-1
     1  C(13)              0.10810     121.52916      43.36463      40.53776
     2  H(1)              -0.01547     -69.13318     -24.66844     -23.06035
     3  H(1)              -0.01547     -69.13320     -24.66844     -23.06035
     4  H(1)              -0.01547     -69.13351     -24.66855     -23.06046
     5  H(1)              -0.00443     -19.79713      -7.06411      -6.60361
     6  H(1)               0.01276      57.02141      20.34666      19.02029
 --------------------------------------------------------
       Center         ----  Spin Dipole Couplings  ----
                      3XX-RR        3YY-RR        3ZZ-RR
 --------------------------------------------------------
     1   Atom        0.450090     -0.398229     -0.051861
     2   Atom       -0.012243      0.063817     -0.051574
     3   Atom        0.023592     -0.050299      0.026707
     4   Atom       -0.018267     -0.007397      0.025664
     5   Atom        0.013920     -0.012319     -0.001601
     6   Atom        0.002597     -0.002298     -0.000299
 --------------------------------------------------------
                        XY            XZ            YZ
 --------------------------------------------------------
     1   Atom       -0.370965     -0.692609      0.260145
     2   Atom        0.034316     -0.029717      0.007037
     3   Atom        0.013991      0.037155      0.045554
     4   Atom       -0.042605      0.003207     -0.056590
     5   Atom       -0.011469     -0.021423      0.008044
     6   Atom       -0.002139     -0.003996      0.001501
 --------------------------------------------------------


 ---------------------------------------------------------------------------------
              Anisotropic Spin Dipole Couplings in Principal Axis System
 ---------------------------------------------------------------------------------

       Atom             a.u.   MegaHertz   Gauss  10(-4) cm-1        Axes

              Baa    -0.5376   -72.136   -25.740   -24.062  0.6093  0.1804  0.7722
     1 C(13)  Bbb    -0.5376   -72.136   -25.740   -24.062  0.1280  0.9387 -0.3202
              Bcc     1.0751   144.272    51.480    48.124  0.7826 -0.2939 -0.5488
 
              Baa    -0.0715   -38.175   -13.622   -12.734  0.5203 -0.1753  0.8358
     2 H(1)   Bbb    -0.0056    -2.989    -1.067    -0.997  0.7706 -0.3254 -0.5480
              Bcc     0.0772    41.164    14.688    13.731  0.3680  0.9292 -0.0342
 
              Baa    -0.0715   -38.175   -13.622   -12.734  0.0360  0.9014 -0.4315
     3 H(1)   Bbb    -0.0056    -2.989    -1.067    -0.997  0.8031 -0.2831 -0.5244
              Bcc     0.0772    41.164    14.688    13.731  0.5948  0.3277  0.7340
 
              Baa    -0.0715   -38.175   -13.622   -12.734  0.5562  0.7261  0.4043
     4 H(1)   Bbb    -0.0056    -2.989    -1.067    -0.997  0.7727 -0.2728 -0.5731
              Bcc     0.0772    41.164    14.688    13.731  0.3058 -0.6312  0.7128
 
              Baa    -0.0166    -8.871    -3.165    -2.959  0.3869 -0.4612  0.7985
     5 H(1)   Bbb    -0.0166    -8.871    -3.165    -2.959  0.4878  0.8372  0.2472
              Bcc     0.0333    17.741     6.331     5.918  0.7826 -0.2938 -0.5489
 
              Baa    -0.0031    -1.655    -0.590    -0.552  0.3826 -0.4684  0.7963
     6 H(1)   Bbb    -0.0031    -1.655    -0.590    -0.552  0.4911  0.8332  0.2541
              Bcc     0.0062     3.309     1.181     1.104  0.7826 -0.2938 -0.5489
 

 ---------------------------------------------------------------------------------

 No NMR shielding tensors so no spin-rotation constants.
 Leave Link  601 at Thu Sep  5 23:08:45 2019, MaxMem=  2684354560 cpu:         2.9
 (Enter /soft/gaussian/09-e.01/g09/l701.exe)
 Compute integral second derivatives.
 ... and contract with generalized density number  0.
 Leave Link  701 at Thu Sep  5 23:08:45 2019, MaxMem=  2684354560 cpu:         1.8
 (Enter /soft/gaussian/09-e.01/g09/l702.exe)
 L702 exits ... SP integral derivatives will be done elsewhere.
 Leave Link  702 at Thu Sep  5 23:08:45 2019, MaxMem=  2684354560 cpu:         0.2
 (Enter /soft/gaussian/09-e.01/g09/l703.exe)
 Compute integral second derivatives, UseDBF=F ICtDFT=           0.
 Integral derivatives from FoFJK, PRISM(SPDF).
 Calling FoFJK, ICntrl=    100147 FMM=F ISym2X=0 I1Cent= 0 IOpClX= 1 NMat=1 NMatS=1 NMatT=0.
 FoFJK:  IHMeth= 1 ICntrl=  100147 DoSepK=F KAlg= 0 I1Cent=   0 FoldK=F
 IRaf=         0 NMat=   1 IRICut=       1 DoRegI=T DoRafI=F ISym2E= 0.
 FoFCou: FMM=F IPFlag=           0 FMFlag=      100000 FMFlg1=         800
         NFxFlg=           0 DoJE=F BraDBF=F KetDBF=F FulRan=T
         wScrn=  0.000000 ICntrl=  100147 IOpCl=  1 I1Cent=           0 NGrid=           0
         NMat0=    1 NMatS0=      1 NMatT0=    0 NMatD0=    1 NMtDS0=    0 NMtDT0=    0
 Symmetry not used in FoFCou.
 Leave Link  703 at Thu Sep  5 23:08:46 2019, MaxMem=  2684354560 cpu:         9.4
 (Enter /soft/gaussian/09-e.01/g09/l716.exe)
 Dipole        = 1.16471051D-01-4.37368826D-02-8.16837169D-02
 Polarizability= 0.00000000D+00 0.00000000D+00 0.00000000D+00
                 0.00000000D+00 0.00000000D+00 0.00000000D+00
 ***** Axes restored to original set *****
 -------------------------------------------------------------------
 Center     Atomic                   Forces (Hartrees/Bohr)
 Number     Number              X              Y              Z
 -------------------------------------------------------------------
      1        6          -0.000000023    0.000000120   -0.000000190
      2        1           0.000000069    0.000000516    0.000022636
      3        1           0.000019612    0.000000658   -0.000011274
      4        1          -0.000019642   -0.000001615   -0.000011151
      5        1          -0.003073667    0.062325864   -0.001780631
      6        1           0.003073651   -0.062325543    0.001780609
 -------------------------------------------------------------------
 Cartesian Forces:  Max     0.062325864 RMS     0.020808951
 -----------------------------------------------------------------------------------------------
                       Internal Coordinate Forces (Hartree/Bohr or radian)
  Cent   Atom   N1       Length/X         N2         Alpha/Y        N3         Beta/Z          J
 -----------------------------------------------------------------------------------------------
      1  C 
      2  H        1   0.000023(     1)
      3  H        1   0.000023(     2)      2  -0.000000(     7)
      4  H        1   0.000023(     3)      2  -0.000000(     8)      3   0.000001(    12)     0
      5  H        1   0.000000(     4)      2   0.000000(     9)      3   0.000000(    13)     0
         X        5   0.000000(     5)      1  -0.000000(    10)      2  -0.000000(    14)     0
      6  H        5  -0.062427(     6)      6  -0.000000(    11)      1  -0.000000(    15)     0
 -----------------------------------------------------------------------------------------------
 Internal  Forces:  Max     0.062426687 RMS     0.016118504
 Force constants in Cartesian coordinates: 
                1             2             3             4             5 
      1  0.625467D+00
      2  0.296459D-01  0.248418D-01
      3 -0.847206D-03  0.171433D-01  0.626436D+00
      4 -0.565205D-01 -0.242275D-02 -0.698633D-04  0.468014D-01
      5 -0.242317D-02 -0.746452D-02  0.148921D-02  0.215071D-02  0.326205D-02
      6  0.752828D-04 -0.147354D-02 -0.361370D+00 -0.484334D-04  0.911591D-03
      7 -0.285526D+00 -0.248494D-02  0.131864D+00  0.489421D-02  0.142629D-04
      8  0.830454D-04 -0.747098D-02 -0.284257D-02 -0.166374D-03  0.228394D-02
      9  0.131718D+00 -0.136450D-02 -0.132359D+00  0.243277D-01 -0.200263D-03
     10 -0.283084D+00 -0.247223D-01 -0.130947D+00  0.485422D-02  0.240195D-03
     11 -0.272892D-01 -0.991173D-02 -0.157804D-01  0.420398D-03  0.231884D-02
     12 -0.130947D+00 -0.142958D-01 -0.132369D+00 -0.241903D-01 -0.258880D-02
     13 -0.693185D-03 -0.276399D-03  0.804905D-05  0.296658D-05  0.356268D-04
     14 -0.277287D-03  0.491571D-02 -0.160328D-03  0.355202D-04 -0.723601D-03
     15  0.803066D-05 -0.160358D-03 -0.702434D-03 -0.272715D-04  0.554763D-03
     16  0.356132D-03  0.260481D-03 -0.746485D-05 -0.323010D-04 -0.176185D-04
     17  0.260760D-03 -0.491029D-02  0.150851D-03 -0.174962D-04  0.323285D-03
     18 -0.747210D-05  0.150885D-03  0.364751D-03  0.825052D-05 -0.166501D-03
                6             7             8             9            10 
      6  0.375657D+00
      7 -0.344555D-02  0.293802D+00
      8  0.112147D-03  0.186174D-02  0.327110D-02
      9 -0.712303D-02 -0.142193D+00  0.140855D-02  0.128652D+00
     10  0.341860D-02 -0.131227D-01 -0.212397D-02 -0.138445D-01  0.291368D+00
     11  0.450178D-03  0.600141D-03  0.231532D-02  0.140536D-03  0.265766D-01
     12 -0.712291D-02  0.137638D-01  0.149983D-02  0.108543D-01  0.141366D+00
     13  0.160360D-05 -0.159272D-03  0.498639D-03  0.659779D-04 -0.116491D-03
     14 -0.314137D-04 -0.909809D-05 -0.722330D-03  0.462844D-04  0.698596D-04
     15 -0.197905D-03  0.949073D-04 -0.245739D-03 -0.359199D-04 -0.700922D-04
     16 -0.149517D-05  0.112059D-03 -0.153083D-03 -0.748437D-04  0.101046D-03
     17  0.310399D-04  0.178929D-04  0.322944D-03 -0.306083D-04 -0.404698D-04
     18  0.156032D-03 -0.845945D-04  0.677768D-04  0.115821D-04  0.776193D-04
               11            12            13            14            15 
     11  0.571007D-02
     12  0.153678D-01  0.128662D+00
     13 -0.439048D-03 -0.700627D-04  0.404794D-01
     14 -0.767316D-03  0.404692D-04 -0.486603D-02  0.138904D+00
     15 -0.253812D-03 -0.356821D-04  0.138629D-03 -0.281886D-02  0.403201D-01
     16  0.131083D-03  0.776134D-04 -0.395135D-01  0.504703D-02 -0.144204D-03
     17  0.334815D-03 -0.235032D-04  0.504721D-02 -0.141606D+00  0.292401D-02
     18  0.757766D-04  0.116935D-04 -0.144197D-03  0.292385D-02 -0.393481D-01
               16            17            18 
     16  0.389765D-01
     17 -0.526790D-02  0.145535D+00
     18  0.150394D-03 -0.305179D-02  0.388041D-01
 Force constants in internal coordinates: 
                1             2             3             4             5 
      1  0.375657D+00
      2  0.566529D-03  0.375657D+00
      3  0.565849D-03  0.565876D-03  0.375663D+00
      4  0.000000D+00  0.000000D+00  0.000000D+00  0.122941D-02
      5  0.000000D+00  0.000000D+00  0.000000D+00  0.000000D+00  0.000000D+00
      6  0.266126D-04  0.263615D-04  0.270997D-04  0.394378D-02  0.000000D+00
      7  0.161492D-01  0.913752D-04 -0.160480D-01 -0.407934D-04  0.000000D+00
      8  0.161497D-01 -0.160484D-01  0.934432D-04 -0.415020D-04  0.000000D+00
      9 -0.587183D-04  0.283965D-04  0.308011D-04  0.000000D+00  0.000000D+00
     10  0.261703D-03 -0.130767D-03 -0.130960D-03  0.000000D+00  0.000000D+00
     11  0.261703D-03 -0.130767D-03 -0.130960D-03  0.000000D+00  0.000000D+00
     12  0.198934D-03  0.157278D-02  0.161856D-02 -0.731591D-03  0.000000D+00
     13  0.000000D+00  0.497795D-04 -0.528755D-04 -0.133031D-05  0.000000D+00
     14  0.000000D+00  0.000000D+00  0.000000D+00  0.000000D+00  0.000000D+00
     15  0.000000D+00 -0.226587D-03  0.226858D-03  0.000000D+00  0.000000D+00
                6             7             8             9            10 
      6  0.145882D+00
      7  0.331823D-04  0.195980D+00
      8  0.332949D-04  0.975075D-01  0.196020D+00
      9  0.000000D+00 -0.264064D-03 -0.262352D-03  0.480378D-02
     10  0.000000D+00  0.111404D-03  0.111239D-03  0.809836D-03  0.362062D-02
     11  0.000000D+00  0.111404D-03  0.111239D-03  0.809836D-03  0.362062D-02
     12  0.583046D-03 -0.813191D-02 -0.779367D-02  0.140311D-02  0.228413D-03
     13  0.000000D+00  0.334127D-03 -0.334237D-03  0.140289D-04 -0.118555D-05
     14  0.000000D+00  0.000000D+00  0.000000D+00  0.000000D+00  0.000000D+00
     15  0.000000D+00 -0.335647D-04  0.336425D-04 -0.121767D-05  0.000000D+00
               11            12            13            14            15 
     11  0.362062D-02
     12  0.228413D-03  0.103213D-01
     13 -0.118555D-05 -0.239608D-02  0.479389D-02
     14  0.000000D+00  0.000000D+00  0.000000D+00  0.000000D+00
     15  0.000000D+00 -0.405330D-03  0.810825D-03  0.000000D+00  0.362022D-02
 Leave Link  716 at Thu Sep  5 23:08:46 2019, MaxMem=  2684354560 cpu:         0.2
 (Enter /soft/gaussian/09-e.01/g09/l103.exe)

 GradGradGradGradGradGradGradGradGradGradGradGradGradGradGradGradGradGrad
 Berny optimization.
 Search for a saddle point.
 Step number   1 out of a maximum of   25
 All quantities printed in internal units (Hartrees-Bohrs-Radians)
 Swapping is turned off.
 Second derivative matrix not updated -- analytic derivatives used.
 The second derivative matrix:
                          R1        R2        A2        R3        A3
           R1           0.37566
           R2           0.00057   0.37566
           A2           0.01615   0.00009   0.19598
           R3           0.00057   0.00057  -0.01605   0.37566
           A3           0.01615  -0.01605   0.09751   0.00009   0.19602
           D3           0.00020   0.00157  -0.00813   0.00162  -0.00779
           R4           0.00000   0.00000  -0.00004   0.00000  -0.00004
           A4          -0.00006   0.00003  -0.00026   0.00003  -0.00026
           D4           0.00000   0.00005   0.00033  -0.00005  -0.00033
           A6           0.00026  -0.00013   0.00011  -0.00013   0.00011
           D6          -0.00000  -0.00023  -0.00003   0.00023   0.00003
           R6           0.00003   0.00003   0.00003   0.00003   0.00003
           A5           0.00026  -0.00013   0.00011  -0.00013   0.00011
           D5           0.00000  -0.00000   0.00000   0.00000   0.00000
           R5           0.00000  -0.00000   0.00000  -0.00000   0.00000
                          D3        R4        A4        D4        A6
           D3           0.01032
           R4          -0.00073   0.00123
           A4           0.00140  -0.00000   0.00480
           D4          -0.00240  -0.00000   0.00001   0.00479
           A6           0.00023  -0.00000   0.00081  -0.00000   0.00362
           D6          -0.00041   0.00000  -0.00000   0.00081   0.00000
           R6           0.00058   0.00394  -0.00000   0.00000   0.00000
           A5           0.00023  -0.00000   0.00081  -0.00000   0.00362
           D5          -0.00000   0.00000   0.00000   0.00000   0.00000
           R5          -0.00000  -0.00000   0.00000  -0.00000   0.00000
                          D6        R6        A5        D5        R5
           D6           0.00362
           R6           0.00000   0.14588
           A5           0.00000   0.00000   0.00362
           D5           0.00000   0.00000   0.00000   0.00000
           R5           0.00000  -0.00000  -0.00000   0.00000  -0.00000
 ITU=  0
     Eigenvalues ---    0.00104   0.00302   0.00321   0.00413   0.00522
     Eigenvalues ---    0.01120   0.09756   0.14599   0.28530   0.37603
     Eigenvalues ---    0.37680   0.383751000.000001000.000001000.00000
 Eigenvectors required to have negative eigenvalues:
                          R4        D3        D4        A4        R6
   1                    0.99013   0.10959   0.07160  -0.04127  -0.02740
                          D6        A3        A6        A2        R2
   1                   -0.00536   0.00315   0.00304   0.00303  -0.00033
 Eigenvalue     1 is   1.04D-03 should be less than     0.000000 Eigenvector:
                          R4        D3        D4        A4        R6
   1                    0.99013   0.10959   0.07160  -0.04127  -0.02740
                          D6        A3        A6        A2        R2
   1                   -0.00536   0.00315   0.00304   0.00303  -0.00033
 RFO step:  Lambda0=2.307536801D-03 Lambda=-2.30388757D-02.
 Linear search not attempted -- option 19 set.
 Maximum step size (   0.300) exceeded in Quadratic search.
    -- Step size scaled by   0.215
 Variable       Old X    -DE/DX   Delta X   Delta X   Delta X     New X
                                 (Linear)    (Quad)   (Total)
    R1        2.04620   0.00002   0.00000   0.00011   0.00011   2.04631
    R2        2.04620   0.00002   0.00000   0.00011   0.00011   2.04631
    A2        2.09300  -0.00000   0.00000  -0.00087  -0.00087   2.09213
    R3        2.04620   0.00002   0.00000   0.00011   0.00011   2.04631
    A3        2.09300  -0.00000   0.00000  -0.00091  -0.00091   2.09209
    D3        3.04320   0.00000   0.00000  -0.03166  -0.03166   3.01154
    R4        4.84828   0.00000   0.00000  -0.28860  -0.28860   4.55968
    A4        1.59930   0.00000   0.00000   0.01249   0.01249   1.61179
    D4        4.66314   0.00000   0.00000  -0.02166  -0.02166   4.64147
    A6        1.57078  -0.00000   0.00000  -0.00094  -0.00094   1.56984
    D6        3.14162  -0.00000   0.00000   0.00165   0.00165   3.14327
    R6        1.66844  -0.06243   0.00000  -0.07125  -0.07125   1.59719
    A5        1.57080  -0.00000   0.00000   0.00000   0.00000   1.57080
    D5        3.14159  -0.00000   0.00000   0.00000   0.00000   3.14159
    R5        1.88973   0.00000   0.00000   0.00000   0.00000   1.88973
         Item               Value     Threshold  Converged?
 Maximum Force            0.062427     0.000450     NO 
 RMS     Force            0.018021     0.000300     NO 
 Maximum Displacement     0.288601     0.001800     NO 
 RMS     Displacement     0.077460     0.001200     NO 
 Predicted change in Energy=-3.946332D-03
 Lowest energy point so far.  Saving SCF results.
 GradGradGradGradGradGradGradGradGradGradGradGradGradGradGradGradGradGrad

 Leave Link  103 at Thu Sep  5 23:08:46 2019, MaxMem=  2684354560 cpu:         0.1
 (Enter /soft/gaussian/09-e.01/g09/l202.exe)
 ---------------------------------------------------------------------------------------------------
                            Z-MATRIX (ANGSTROMS AND DEGREES)
   CD    Cent   Atom    N1       Length/X        N2       Alpha/Y        N3        Beta/Z          J
 ---------------------------------------------------------------------------------------------------
      1      1  C 
      2      2  H        1   1.082860(     1)
      3      3  H        1   1.082861(     2)      2  119.870(     7)
      4      4  H        1   1.082859(     3)      2  119.868(     8)      3  172.548(    12)      0
      5      5  H        1   2.412879(     4)      2   92.349(     9)      3  265.937(    13)      0
      6         X        5   1.000000(     5)      1   90.000(    10)      2  180.000(    14)      0
      7      6  H        5   0.845196(     6)      6   89.945(    11)      1  180.096(    15)      0
 ---------------------------------------------------------------------------------------------------
                         Z-Matrix orientation:                         
 ---------------------------------------------------------------------
 Center     Atomic      Atomic             Coordinates (Angstroms)
 Number     Number       Type             X           Y           Z
 ---------------------------------------------------------------------
      1          6           0        0.000000    0.000000    0.000000
      2          1           0        0.000000    0.000000    1.082860
      3          1           0        0.939010    0.000000   -0.539303
      4          1           0       -0.931099   -0.121783   -0.539266
      5          1           0       -0.170822    2.404792   -0.098882
      6         -1           0       -0.167919    2.363914   -1.098042
      7          1           0       -0.232070    3.247021   -0.134330
 ---------------------------------------------------------------------
                    Distance matrix (angstroms):
                    1          2          3          4          5
     1  C    0.000000
     2  H    1.082860   0.000000
     3  H    1.082861   1.874341   0.000000
     4  H    1.082859   1.874318   1.874070   0.000000
     5  H    2.412879   2.684906   2.684907   2.674984   0.000000
     6  X    2.611893   3.220655   2.669376   2.659580   1.000000
     7  H    3.258074   3.475421   3.475424   3.464312   0.845196
                    6          7
     6  X    0.000000
     7  H    1.308714   0.000000
 Stoichiometry    CH5(2)
 Framework group  C1[X(CH5)]
 Deg. of freedom    12
 Full point group                 C1      NOp   1
 RotChk:  IX=0 Diff= 9.83D-01
 Largest Abelian subgroup         C1      NOp   1
 Largest concise Abelian subgroup C1      NOp   1
                         Standard orientation:                         
 ---------------------------------------------------------------------
 Center     Atomic      Atomic             Coordinates (Angstroms)
 Number     Number       Type             X           Y           Z
 ---------------------------------------------------------------------
      1          6           0        0.504440   -0.000155    0.000407
      2          1           0        0.549527    1.076896   -0.102132
      3          1           0        0.549551   -0.628131   -0.880613
      4          1           0        0.536351   -0.449936    0.984919
      5          1           0       -1.908437    0.001157   -0.002537
      6          1           0       -2.753633    0.000942   -0.002081
 ---------------------------------------------------------------------
 Rotational constants (GHZ):    142.7554094     30.6195634     30.6182343
 Leave Link  202 at Thu Sep  5 23:08:46 2019, MaxMem=  2684354560 cpu:         0.1
 (Enter /soft/gaussian/09-e.01/g09/l301.exe)
 Standard basis: 6-31G(d) (6D, 7F)
 Ernie: Thresh=  0.10000D-02 Tol=  0.10000D-05 Strict=F.
 There are    25 symmetry adapted cartesian basis functions of A   symmetry.
 There are    25 symmetry adapted basis functions of A   symmetry.
    25 basis functions,    48 primitive gaussians,    25 cartesian basis functions
     6 alpha electrons        5 beta electrons
       nuclear repulsion energy        13.6091426949 Hartrees.
 IExCor=  402 DFT=T Ex+Corr=B3LYP ExCW=0 ScaHFX=  0.200000
 ScaDFX=  0.800000  0.720000  1.000000  0.810000 ScalE2=  1.000000  1.000000
 IRadAn=      5 IRanWt=     -1 IRanGd=            0 ICorTp=0 IEmpDi=  4
 NAtoms=    6 NActive=    6 NUniq=    6 SFac= 1.00D+00 NAtFMM=   60 NAOKFM=F Big=F
 Integral buffers will be    131072 words long.
 Raffenetti 2 integral format.
 Two-electron integral symmetry is turned on.
 Leave Link  301 at Thu Sep  5 23:08:46 2019, MaxMem=  2684354560 cpu:         0.4
 (Enter /soft/gaussian/09-e.01/g09/l302.exe)
 NPDir=0 NMtPBC=     1 NCelOv=     1 NCel=       1 NClECP=     1 NCelD=      1
         NCelK=      1 NCelE2=     1 NClLst=     1 CellRange=     0.0.
 One-electron integrals computed using PRISM.
 NBasis=    25 RedAO= T EigKep=  2.55D-02  NBF=    25
 NBsUse=    25 1.00D-06 EigRej= -1.00D+00 NBFU=    25
 Precomputing XC quadrature grid using
 IXCGrd= 4 IRadAn=           5 IRanWt=          -1 IRanGd=           0 AccXCQ= 0.00D+00.
 Generated NRdTot=       0 NPtTot=           0 NUsed=           0 NTot=          32
 NSgBfM=    25    25    25    25    25 MxSgAt=     6 MxSgA2=     6.
 Leave Link  302 at Thu Sep  5 23:08:47 2019, MaxMem=  2684354560 cpu:         1.6
 (Enter /soft/gaussian/09-e.01/g09/l303.exe)
 DipDrv:  MaxL=1.
 Leave Link  303 at Thu Sep  5 23:08:47 2019, MaxMem=  2684354560 cpu:         0.2
 (Enter /soft/gaussian/09-e.01/g09/l401.exe)
 Initial guess from the checkpoint file:  "/blues/gpfs/home/elliott/Packages/PACC/moldriver/rcdriver/tmprundir/RXN/CH3.H2/MDUSDFXREFXETQ/0_0/2_1/UHFFFAOYSA-N/CH4.H/HXBDELFRWIQQII/0_0/1_2/UHFFFAOYSA-N/2/ezvlpJU/TS/RUN/OPTI/A00/Gau-163808.chk"
 B after Tr=    -0.000000   -0.000000   -0.000000
         Rot=    0.939888    0.087415    0.275807   -0.181381 Ang=  39.93 deg.
 Guess basis will be translated and rotated to current coordinates.
 JPrj=2 DoOrth=T DoCkMO=T.
 Initial guess <Sx>= 0.0000 <Sy>= 0.0000 <Sz>= 0.5000 <S**2>= 0.7538 S= 0.5019
 Generating alternative initial guess.
 ExpMin= 1.61D-01 ExpMax= 3.05D+03 ExpMxC= 4.57D+02 IAcc=2 IRadAn=         4 AccDes= 0.00D+00
 Harris functional with IExCor=  402 and IRadAn=       4 diagonalized for initial guess.
 HarFok:  IExCor=  402 AccDes= 0.00D+00 IRadAn=         4 IDoV= 1 UseB2=F ITyADJ=14
 ICtDFT=  3500011 ScaDFX=  1.000000  1.000000  1.000000  1.000000
 FoFCou: FMM=F IPFlag=           0 FMFlag=      100000 FMFlg1=           0
         NFxFlg=           0 DoJE=T BraDBF=F KetDBF=T FulRan=T
         wScrn=  0.000000 ICntrl=     500 IOpCl=  0 I1Cent=   200000004 NGrid=           0
         NMat0=    1 NMatS0=      1 NMatT0=    0 NMatD0=    1 NMtDS0=    0 NMtDT0=    0
 Petite list used in FoFCou.
 Harris En= -41.0034529750539    
 Leave Link  401 at Thu Sep  5 23:08:47 2019, MaxMem=  2684354560 cpu:         2.0
 (Enter /soft/gaussian/09-e.01/g09/l502.exe)
 UHF open shell SCF:
 Using DIIS extrapolation, IDIIS=  1040.
 Integral symmetry usage will be decided dynamically.
 Keep R1 and R2 ints in memory in canonical form, NReq=976418.
 IVT=        8268 IEndB=        8268 NGot=  2684354560 MDV=  2684240343
 LenX=  2684240343 LenY=  2684239277
 Requested convergence on RMS density matrix=1.00D-08 within  64 cycles.
 Requested convergence on MAX density matrix=1.00D-06.
 Requested convergence on             energy=1.00D-06.
 No special actions if energy rises.
 FoFCou: FMM=F IPFlag=           0 FMFlag=           0 FMFlg1=           0
         NFxFlg=           0 DoJE=F BraDBF=F KetDBF=F FulRan=T
         wScrn=  0.000000 ICntrl=     600 IOpCl=  0 I1Cent=           0 NGrid=           0
         NMat0=    1 NMatS0=    325 NMatT0=    0 NMatD0=    1 NMtDS0=    0 NMtDT0=    0
 Symmetry not used in FoFCou.
 Integral accuracy reduced to 1.0D-05 until final iterations.

 Cycle   1  Pass 0  IDiag  1:
 E= -41.0085901736600    
 DIIS: error= 4.39D-03 at cycle   1 NSaved=   1.
 NSaved= 1 IEnMin= 1 EnMin= -41.0085901736600     IErMin= 1 ErrMin= 4.39D-03
 ErrMax= 4.39D-03  0.00D+00 EMaxC= 1.00D-01 BMatC= 5.19D-04 BMatP= 5.19D-04
 IDIUse=3 WtCom= 9.56D-01 WtEn= 4.39D-02
 Coeff-Com:  0.100D+01
 Coeff-En:   0.100D+01
 Coeff:      0.100D+01
 Gap=     2.643 Goal=   None    Shift=    0.000
 Gap=     2.516 Goal=   None    Shift=    0.000
 GapD=    2.516 DampG=2.000 DampE=1.000 DampFc=2.0000 IDamp=-1.
 RMSDP=6.99D-04 MaxDP=5.30D-03              OVMax= 1.04D-02

 Cycle   2  Pass 0  IDiag  1:
 E= -41.0088367661943     Delta-E=       -0.000246592534 Rises=F Damp=F
 DIIS: error= 4.59D-04 at cycle   2 NSaved=   2.
 NSaved= 2 IEnMin= 2 EnMin= -41.0088367661943     IErMin= 2 ErrMin= 4.59D-04
 ErrMax= 4.59D-04  0.00D+00 EMaxC= 1.00D-01 BMatC= 1.07D-05 BMatP= 5.19D-04
 IDIUse=3 WtCom= 9.95D-01 WtEn= 4.59D-03
 Coeff-Com:  0.828D-01 0.917D+00
 Coeff-En:   0.000D+00 0.100D+01
 Coeff:      0.825D-01 0.918D+00
 Gap=     0.326 Goal=   None    Shift=    0.000
 Gap=     0.340 Goal=   None    Shift=    0.000
 RMSDP=1.26D-04 MaxDP=1.25D-03 DE=-2.47D-04 OVMax= 2.48D-03

 Cycle   3  Pass 0  IDiag  1:
 E= -41.0088436775257     Delta-E=       -0.000006911331 Rises=F Damp=F
 DIIS: error= 1.14D-04 at cycle   3 NSaved=   3.
 NSaved= 3 IEnMin= 3 EnMin= -41.0088436775257     IErMin= 3 ErrMin= 1.14D-04
 ErrMax= 1.14D-04  0.00D+00 EMaxC= 1.00D-01 BMatC= 8.02D-07 BMatP= 1.07D-05
 IDIUse=3 WtCom= 9.99D-01 WtEn= 1.14D-03
 Coeff-Com: -0.163D-01-0.221D-01 0.104D+01
 Coeff-En:   0.000D+00 0.000D+00 0.100D+01
 Coeff:     -0.163D-01-0.221D-01 0.104D+01
 Gap=     0.325 Goal=   None    Shift=    0.000
 Gap=     0.341 Goal=   None    Shift=    0.000
 RMSDP=4.96D-05 MaxDP=4.30D-04 DE=-6.91D-06 OVMax= 6.27D-04

 Cycle   4  Pass 0  IDiag  1:
 E= -41.0088442183914     Delta-E=       -0.000000540866 Rises=F Damp=F
 DIIS: error= 7.57D-05 at cycle   4 NSaved=   4.
 NSaved= 4 IEnMin= 4 EnMin= -41.0088442183914     IErMin= 4 ErrMin= 7.57D-05
 ErrMax= 7.57D-05  0.00D+00 EMaxC= 1.00D-01 BMatC= 4.05D-07 BMatP= 8.02D-07
 IDIUse=1 WtCom= 1.00D+00 WtEn= 0.00D+00
 Coeff-Com: -0.142D-01-0.875D-01 0.452D+00 0.650D+00
 Coeff:     -0.142D-01-0.875D-01 0.452D+00 0.650D+00
 Gap=     0.325 Goal=   None    Shift=    0.000
 Gap=     0.341 Goal=   None    Shift=    0.000
 RMSDP=1.66D-05 MaxDP=1.31D-04 DE=-5.41D-07 OVMax= 1.97D-04

 Cycle   5  Pass 0  IDiag  1:
 E= -41.0088443696819     Delta-E=       -0.000000151290 Rises=F Damp=F
 DIIS: error= 2.67D-05 at cycle   5 NSaved=   5.
 NSaved= 5 IEnMin= 5 EnMin= -41.0088443696819     IErMin= 5 ErrMin= 2.67D-05
 ErrMax= 2.67D-05  0.00D+00 EMaxC= 1.00D-01 BMatC= 2.81D-08 BMatP= 4.05D-07
 IDIUse=1 WtCom= 1.00D+00 WtEn= 0.00D+00
 Coeff-Com:  0.414D-02 0.537D-02-0.225D+00-0.126D-01 0.123D+01
 Coeff:      0.414D-02 0.537D-02-0.225D+00-0.126D-01 0.123D+01
 Gap=     0.325 Goal=   None    Shift=    0.000
 Gap=     0.341 Goal=   None    Shift=    0.000
 RMSDP=9.90D-06 MaxDP=8.83D-05 DE=-1.51D-07 OVMax= 1.56D-04

 Initial convergence to 1.0D-05 achieved.  Increase integral accuracy.
 Cycle   6  Pass 1  IDiag  1:
 E= -41.0088442449808     Delta-E=        0.000000124701 Rises=F Damp=F
 DIIS: error= 8.09D-06 at cycle   1 NSaved=   1.
 NSaved= 1 IEnMin= 1 EnMin= -41.0088442449808     IErMin= 1 ErrMin= 8.09D-06
 ErrMax= 8.09D-06  0.00D+00 EMaxC= 1.00D-01 BMatC= 1.23D-09 BMatP= 1.23D-09
 IDIUse=1 WtCom= 1.00D+00 WtEn= 0.00D+00
 Coeff-Com:  0.100D+01
 Coeff:      0.100D+01
 Gap=     0.325 Goal=   None    Shift=    0.000
 Gap=     0.341 Goal=   None    Shift=    0.000
 RMSDP=9.90D-06 MaxDP=8.83D-05 DE= 1.25D-07 OVMax= 2.92D-05

 Cycle   7  Pass 1  IDiag  1:
 E= -41.0088442459497     Delta-E=       -0.000000000969 Rises=F Damp=F
 DIIS: error= 3.95D-06 at cycle   2 NSaved=   2.
 NSaved= 2 IEnMin= 2 EnMin= -41.0088442459497     IErMin= 2 ErrMin= 3.95D-06
 ErrMax= 3.95D-06  0.00D+00 EMaxC= 1.00D-01 BMatC= 2.46D-10 BMatP= 1.23D-09
 IDIUse=1 WtCom= 1.00D+00 WtEn= 0.00D+00
 Coeff-Com: -0.105D+00 0.111D+01
 Coeff:     -0.105D+00 0.111D+01
 Gap=     0.325 Goal=   None    Shift=    0.000
 Gap=     0.341 Goal=   None    Shift=    0.000
 RMSDP=6.40D-07 MaxDP=8.17D-06 DE=-9.69D-10 OVMax= 1.62D-05

 Cycle   8  Pass 1  IDiag  1:
 E= -41.0088442461594     Delta-E=       -0.000000000210 Rises=F Damp=F
 DIIS: error= 2.05D-06 at cycle   3 NSaved=   3.
 NSaved= 3 IEnMin= 3 EnMin= -41.0088442461594     IErMin= 3 ErrMin= 2.05D-06
 ErrMax= 2.05D-06  0.00D+00 EMaxC= 1.00D-01 BMatC= 6.57D-11 BMatP= 2.46D-10
 IDIUse=1 WtCom= 1.00D+00 WtEn= 0.00D+00
 Coeff-Com: -0.250D+00 0.238D+00 0.101D+01
 Coeff:     -0.250D+00 0.238D+00 0.101D+01
 Gap=     0.325 Goal=   None    Shift=    0.000
 Gap=     0.341 Goal=   None    Shift=    0.000
 RMSDP=4.45D-07 MaxDP=5.39D-06 DE=-2.10D-10 OVMax= 8.63D-06

 Cycle   9  Pass 1  IDiag  1:
 E= -41.0088442462130     Delta-E=       -0.000000000054 Rises=F Damp=F
 DIIS: error= 2.83D-07 at cycle   4 NSaved=   4.
 NSaved= 4 IEnMin= 4 EnMin= -41.0088442462130     IErMin= 4 ErrMin= 2.83D-07
 ErrMax= 2.83D-07  0.00D+00 EMaxC= 1.00D-01 BMatC= 6.17D-12 BMatP= 6.57D-11
 IDIUse=1 WtCom= 1.00D+00 WtEn= 0.00D+00
 Coeff-Com: -0.817D-01 0.227D-01 0.333D+00 0.726D+00
 Coeff:     -0.817D-01 0.227D-01 0.333D+00 0.726D+00
 Gap=     0.325 Goal=   None    Shift=    0.000
 Gap=     0.341 Goal=   None    Shift=    0.000
 RMSDP=7.47D-08 MaxDP=6.06D-07 DE=-5.36D-11 OVMax= 1.15D-06

 Cycle  10  Pass 1  IDiag  1:
 E= -41.0088442462157     Delta-E=       -0.000000000003 Rises=F Damp=F
 DIIS: error= 1.09D-07 at cycle   5 NSaved=   5.
 NSaved= 5 IEnMin= 5 EnMin= -41.0088442462157     IErMin= 5 ErrMin= 1.09D-07
 ErrMax= 1.09D-07  0.00D+00 EMaxC= 1.00D-01 BMatC= 8.56D-13 BMatP= 6.17D-12
 IDIUse=1 WtCom= 1.00D+00 WtEn= 0.00D+00
 Coeff-Com:  0.250D-01-0.429D-01-0.109D+00 0.215D+00 0.912D+00
 Coeff:      0.250D-01-0.429D-01-0.109D+00 0.215D+00 0.912D+00
 Gap=     0.325 Goal=   None    Shift=    0.000
 Gap=     0.341 Goal=   None    Shift=    0.000
 RMSDP=4.28D-08 MaxDP=4.07D-07 DE=-2.64D-12 OVMax= 6.54D-07

 Cycle  11  Pass 1  IDiag  1:
 E= -41.0088442462161     Delta-E=       -0.000000000000 Rises=F Damp=F
 DIIS: error= 2.28D-08 at cycle   6 NSaved=   6.
 NSaved= 6 IEnMin= 6 EnMin= -41.0088442462161     IErMin= 6 ErrMin= 2.28D-08
 ErrMax= 2.28D-08  0.00D+00 EMaxC= 1.00D-01 BMatC= 1.80D-14 BMatP= 8.56D-13
 IDIUse=1 WtCom= 1.00D+00 WtEn= 0.00D+00
 Coeff-Com: -0.107D-02 0.626D-02 0.547D-02-0.746D-01-0.154D+00 0.122D+01
 Coeff:     -0.107D-02 0.626D-02 0.547D-02-0.746D-01-0.154D+00 0.122D+01
 Gap=     0.325 Goal=   None    Shift=    0.000
 Gap=     0.341 Goal=   None    Shift=    0.000
 RMSDP=8.86D-09 MaxDP=9.67D-08 DE=-4.55D-13 OVMax= 1.04D-07

 SCF Done:  E(UB3LYP) =  -41.0088442462     A.U. after   11 cycles
            NFock= 11  Conv=0.89D-08     -V/T= 2.0124
 <Sx>= 0.0000 <Sy>= 0.0000 <Sz>= 0.5000 <S**2>= 0.7539 S= 0.5019
 <L.S>= 0.000000000000E+00
 KE= 4.050525601394D+01 PE=-1.211378716595D+02 EE= 2.601462870440D+01
 Annihilation of the first spin contaminant:
 S**2 before annihilation     0.7539,   after     0.7500
 Leave Link  502 at Thu Sep  5 23:08:47 2019, MaxMem=  2684354560 cpu:         6.2
 (Enter /soft/gaussian/09-e.01/g09/l508.exe)
 QCSCF skips out because SCF is already converged.
 Leave Link  508 at Thu Sep  5 23:08:47 2019, MaxMem=  2684354560 cpu:         0.0
 (Enter /soft/gaussian/09-e.01/g09/l701.exe)
 Compute integral first derivatives.
 ... and contract with generalized density number  0.
 Leave Link  701 at Thu Sep  5 23:08:48 2019, MaxMem=  2684354560 cpu:         1.5
 (Enter /soft/gaussian/09-e.01/g09/l702.exe)
 L702 exits ... SP integral derivatives will be done elsewhere.
 Leave Link  702 at Thu Sep  5 23:08:48 2019, MaxMem=  2684354560 cpu:         0.2
 (Enter /soft/gaussian/09-e.01/g09/l703.exe)
 Compute integral first derivatives, UseDBF=F ICtDFT=           0.
 Integral derivatives from FoFJK, PRISM(SPDF).
 Calling FoFJK, ICntrl=      2127 FMM=F ISym2X=0 I1Cent= 0 IOpClX= 1 NMat=1 NMatS=1 NMatT=0.
 FoFJK:  IHMeth= 1 ICntrl=    2127 DoSepK=F KAlg= 0 I1Cent=   0 FoldK=F
 IRaf=         0 NMat=   1 IRICut=       1 DoRegI=T DoRafI=F ISym2E= 0.
 FoFCou: FMM=F IPFlag=           0 FMFlag=      100000 FMFlg1=         800
         NFxFlg=           0 DoJE=F BraDBF=F KetDBF=F FulRan=T
         wScrn=  0.000000 ICntrl=    2127 IOpCl=  1 I1Cent=           0 NGrid=           0
         NMat0=    1 NMatS0=      1 NMatT0=    0 NMatD0=    1 NMtDS0=    0 NMtDT0=    0
 Symmetry not used in FoFCou.
 Leave Link  703 at Thu Sep  5 23:08:48 2019, MaxMem=  2684354560 cpu:         2.2
 (Enter /soft/gaussian/09-e.01/g09/l716.exe)
 Dipole        = 1.62276181D-01-2.08781481D-04 4.13530593D-04
 ***** Axes restored to original set *****
 -------------------------------------------------------------------
 Center     Atomic                   Forces (Hartrees/Bohr)
 Number     Number              X              Y              Z
 -------------------------------------------------------------------
      1        6           0.000055786   -0.000931256    0.000001273
      2        1          -0.000002477    0.000039913    0.000019762
      3        1           0.000033019    0.000042703    0.000003537
      4        1          -0.000035181    0.000016450    0.000004994
      5        1          -0.003613869    0.049803632   -0.002091526
      6        1           0.003562721   -0.048971443    0.002061960
 -------------------------------------------------------------------
 Cartesian Forces:  Max     0.049803632 RMS     0.016522476
 -----------------------------------------------------------------------------------------------
                       Internal Coordinate Forces (Hartree/Bohr or radian)
  Cent   Atom   N1       Length/X         N2         Alpha/Y        N3         Beta/Z          J
 -----------------------------------------------------------------------------------------------
      1  C 
      2  H        1   0.000020(     1)
      3  H        1   0.000027(     2)      2  -0.000040(     7)
      4  H        1   0.000026(     3)      2  -0.000042(     8)      3   0.000037(    12)     0
      5  H        1   0.000834(     4)      2  -0.000022(     9)      3   0.000039(    13)     0
         X        5   0.000000(     5)      1   0.000001(    10)      2  -0.000000(    14)     0
      6  H        5  -0.049144(     6)      6   0.000001(    11)      1  -0.000002(    15)     0
 -----------------------------------------------------------------------------------------------
 Internal  Forces:  Max     0.049144144 RMS     0.012690814
 Leave Link  716 at Thu Sep  5 23:08:48 2019, MaxMem=  2684354560 cpu:         0.2
 (Enter /soft/gaussian/09-e.01/g09/l103.exe)

 GradGradGradGradGradGradGradGradGradGradGradGradGradGradGradGradGradGrad
 Berny optimization.
 Search for a saddle point.
 Step number   2 out of a maximum of   25
 All quantities printed in internal units (Hartrees-Bohrs-Radians)
 Swapping is turned off.
 Update second derivatives using D2CorN and points    1    2
 The second derivative matrix:
                          R1        R2        A2        R3        A3
           R1           0.37566
           R2           0.00057   0.37566
           A2           0.01615   0.00009   0.19598
           R3           0.00057   0.00057  -0.01605   0.37566
           A3           0.01615  -0.01605   0.09751   0.00009   0.19602
           D3           0.00020   0.00157  -0.00814   0.00162  -0.00780
           R4           0.00000   0.00002  -0.00011   0.00001  -0.00011
           A4          -0.00006   0.00003  -0.00026   0.00003  -0.00026
           D4           0.00000   0.00005   0.00033  -0.00005  -0.00034
           A6           0.00026  -0.00013   0.00011  -0.00013   0.00011
           D6          -0.00000  -0.00023  -0.00003   0.00023   0.00003
           R6           0.00003   0.00003   0.00002   0.00003   0.00002
           A5           0.00026  -0.00013   0.00011  -0.00013   0.00011
           D5           0.00000  -0.00000   0.00000   0.00000   0.00000
           R5           0.00000  -0.00000   0.00000  -0.00000   0.00000
                          D3        R4        A4        D4        A6
           D3           0.01031
           R4          -0.00075   0.00194
           A4           0.00140  -0.00003   0.00480
           D4          -0.00240   0.00005   0.00001   0.00480
           A6           0.00023   0.00000   0.00081  -0.00000   0.00362
           D6          -0.00041  -0.00000  -0.00000   0.00081   0.00000
           R6           0.00087   0.00681  -0.00012   0.00021   0.00001
           A5           0.00023   0.00000   0.00081  -0.00000   0.00362
           D5          -0.00000   0.00000   0.00000   0.00000   0.00000
           R5           0.00000   0.00000   0.00000   0.00000   0.00000
                          D6        R6        A5        D5        R5
           D6           0.00362
           R6          -0.00002   0.14725
           A5           0.00000   0.00000   0.00362
           D5           0.00000   0.00000   0.00000   0.00000
           R5           0.00000  -0.00000  -0.00000   0.00000  -0.00000
 ITU=  0  0
     Eigenvalues ---    0.00152   0.00302   0.00321   0.00413   0.00522
     Eigenvalues ---    0.01120   0.09756   0.14758   0.28530   0.37603
     Eigenvalues ---    0.37680   0.383751000.000001000.000001000.00000
 Eigenvectors required to have negative eigenvalues:
                          R4        D3        D4        A4        R6
   1                    0.98609   0.12640   0.08384  -0.04819  -0.04699
                          D6        A3        A2        A6        R2
   1                   -0.00661   0.00387   0.00369   0.00367  -0.00041
 Eigenvalue     1 is   1.52D-03 should be less than     0.000000 Eigenvector:
                          R4        D3        D4        A4        R6
   1                    0.98609   0.12640   0.08384  -0.04819  -0.04699
                          D6        A3        A2        A6        R2
   1                   -0.00661   0.00387   0.00369   0.00367  -0.00041
 RFO step:  Lambda0=3.992898602D-03 Lambda=-1.48174870D-02.
 Linear search not attempted -- option 19 set.
 Maximum step size (   0.300) exceeded in Quadratic search.
    -- Step size scaled by   0.230
 Variable       Old X    -DE/DX   Delta X   Delta X   Delta X     New X
                                 (Linear)    (Quad)   (Total)
    R1        2.04631   0.00002   0.00000   0.00014   0.00014   2.04645
    R2        2.04631   0.00003   0.00000   0.00014   0.00014   2.04645
    A2        2.09213  -0.00004   0.00000  -0.00114  -0.00114   2.09099
    R3        2.04631   0.00003   0.00000   0.00014   0.00014   2.04645
    A3        2.09209  -0.00004   0.00000  -0.00120  -0.00120   2.09089
    D3        3.01154   0.00004   0.00000  -0.03816  -0.03816   2.97337
    R4        4.55968   0.00083   0.00000  -0.29071  -0.29071   4.26897
    A4        1.61179  -0.00002   0.00000   0.01523   0.01523   1.62702
    D4        4.64147   0.00004   0.00000  -0.02651  -0.02651   4.61497
    A6        1.56984   0.00000   0.00000  -0.00120  -0.00120   1.56864
    D6        3.14327  -0.00000   0.00000   0.00216   0.00216   3.14543
    R6        1.59719  -0.04914   0.00000  -0.05555  -0.05555   1.54164
    A5        1.57080   0.00000   0.00000   0.00000   0.00000   1.57080
    D5        3.14159  -0.00000   0.00000   0.00000   0.00000   3.14159
    R5        1.88973   0.00000   0.00000   0.00000   0.00000   1.88973
         Item               Value     Threshold  Converged?
 Maximum Force            0.049144     0.000450     NO 
 RMS     Force            0.014189     0.000300     NO 
 Maximum Displacement     0.290713     0.001800     NO 
 RMS     Displacement     0.077460     0.001200     NO 
 Predicted change in Energy=-2.065309D-03
 Lowest energy point so far.  Saving SCF results.
 GradGradGradGradGradGradGradGradGradGradGradGradGradGradGradGradGradGrad

 Leave Link  103 at Thu Sep  5 23:08:48 2019, MaxMem=  2684354560 cpu:         0.1
 (Enter /soft/gaussian/09-e.01/g09/l202.exe)
 ---------------------------------------------------------------------------------------------------
                            Z-MATRIX (ANGSTROMS AND DEGREES)
   CD    Cent   Atom    N1       Length/X        N2       Alpha/Y        N3        Beta/Z          J
 ---------------------------------------------------------------------------------------------------
      1      1  C 
      2      2  H        1   1.082936(     1)
      3      3  H        1   1.082937(     2)      2  119.805(     7)
      4      4  H        1   1.082933(     3)      2  119.799(     8)      3  170.362(    12)      0
      5      5  H        1   2.259040(     4)      2   93.221(     9)      3  264.418(    13)      0
      6         X        5   1.000000(     5)      1   90.000(    10)      2  180.000(    14)      0
      7      6  H        5   0.815799(     6)      6   89.876(    11)      1  180.220(    15)      0
 ---------------------------------------------------------------------------------------------------
                         Z-Matrix orientation:                         
 ---------------------------------------------------------------------
 Center     Atomic      Atomic             Coordinates (Angstroms)
 Number     Number       Type             X           Y           Z
 ---------------------------------------------------------------------
      1          6           0        0.000000    0.000000    0.000000
      2          1           0        0.000000    0.000000    1.082936
      3          1           0        0.939689    0.000000   -0.538273
      4          1           0       -0.926477   -0.157337   -0.538172
      5          1           0       -0.219385    2.244776   -0.126941
      6         -1           0       -0.213919    2.188850   -1.125361
      7          1           0       -0.301712    3.055013   -0.174539
 ---------------------------------------------------------------------
                    Distance matrix (angstroms):
                    1          2          3          4          5
     1  C    0.000000
     2  H    1.082936   0.000000
     3  H    1.082937   1.873855   0.000000
     4  H    1.082933   1.873794   1.872787   0.000000
     5  H    2.259040   2.559482   2.559622   2.537565   0.000000
     6  X    2.470478   3.116633   2.542941   2.521334   1.000000
     7  H    3.074833   3.317435   3.317602   3.292682   0.815799
                    6          7
     6  X    0.000000
     7  H    1.289189   0.000000
 Stoichiometry    CH5(2)
 Framework group  C1[X(CH5)]
 Deg. of freedom    12
 Full point group                 C1      NOp   1
 RotChk:  IX=0 Diff= 4.64D-02
 Largest Abelian subgroup         C1      NOp   1
 Largest concise Abelian subgroup C1      NOp   1
                         Standard orientation:                         
 ---------------------------------------------------------------------
 Center     Atomic      Atomic             Coordinates (Angstroms)
 Number     Number       Type             X           Y           Z
 ---------------------------------------------------------------------
      1          6           0        0.470534   -0.000286    0.000927
      2          1           0        0.533116    1.075689   -0.104475
[...]
 Berny optimization.
 Search for a saddle point.
 Step number  20 out of a maximum of   25
 All quantities printed in internal units (Hartrees-Bohrs-Radians)
 Swapping is turned off.
 Update second derivatives using D2CorN and points   10   11   12   13   14
                                                         15   16   17   18   19

                                                         20
 The second derivative matrix:
                          R1        R2        A2        R3        A3
           R1           0.37568
           R2           0.00055   0.37571
           A2           0.01635  -0.00044   0.20032
           R3           0.00056   0.00046  -0.01550   0.37553
           A3           0.01611  -0.01508   0.09154   0.00092   0.19250
           D3           0.00090   0.01064  -0.05045   0.00758  -0.02570
           R4           0.00147   0.00189  -0.00898   0.00229  -0.01302
           A4           0.00267  -0.00063   0.00700  -0.00132   0.00578
           D4          -0.00062  -0.00120   0.01447   0.00332  -0.02176
           A6           0.00104  -0.00065   0.00231  -0.00183   0.00599
           D6          -0.00040  -0.00069  -0.00139   0.00187  -0.00249
           R6           0.00024  -0.00100   0.00885  -0.00017   0.00135
           A5           0.00025  -0.00009   0.00010  -0.00007  -0.00037
           D5          -0.00000  -0.00000   0.00001  -0.00000   0.00001
           R5           0.00000  -0.00000  -0.00000  -0.00000   0.00000
                          D3        R4        A4        D4        A6
           D3           0.10345
           R4          -0.01696   0.01539
           A4           0.02953   0.00118   0.08590
           D4          -0.04699   0.00238  -0.00868   0.08486
           A6           0.00374   0.00379  -0.00226  -0.00111   0.02963
           D6          -0.00312   0.00067  -0.00380   0.00203  -0.00201
           R6           0.01361   0.07828   0.00436   0.00780   0.01089
           A5          -0.00029   0.00060   0.00275  -0.00154   0.02237
           D5          -0.00002   0.00001  -0.00012   0.00005   0.00006
           R5           0.00000   0.00000   0.00000  -0.00000  -0.00000
                          D6        R6        A5        D5        R5
           D6           0.02552
           R6          -0.00019   0.11754
           A5           0.00044  -0.00027   0.00362
           D5          -0.00005  -0.00000   0.00000   0.00000
           R5           0.00000  -0.00000  -0.00000   0.00000  -0.00000
 ITU=  0  0  0  0  0  0  0  0  0  0  0  0  0  0  0  0
     Eigenvalues ---   -0.03406   0.02408   0.02823   0.03980   0.06888
     Eigenvalues ---    0.09988   0.15834   0.16486   0.29384   0.37607
     Eigenvalues ---    0.37715   0.384981000.000001000.000001000.00000
 Eigenvectors required to have negative eigenvalues:
                          R4        R6        D3        D4        A2
   1                    0.84079  -0.46447   0.23444   0.10510   0.07178
                          A3        A4        R2        R1        R3
   1                    0.05985  -0.04841  -0.00857  -0.00801  -0.00759
 RFO step:  Lambda0=7.650762936D-09 Lambda=-1.15632221D-07.
 Linear search not attempted -- option 19 set.
 Variable       Old X    -DE/DX   Delta X   Delta X   Delta X     New X
                                 (Linear)    (Quad)   (Total)
    R1        2.05667   0.00000   0.00000   0.00002   0.00002   2.05669
    R2        2.05668  -0.00000   0.00000   0.00001   0.00001   2.05668
    A2        2.00597   0.00000   0.00000  -0.00002  -0.00002   2.00595
    R3        2.05666   0.00001   0.00000   0.00003   0.00003   2.05668
    A3        2.00622  -0.00003   0.00000  -0.00030  -0.00030   2.00592
    D3        2.38776  -0.00002   0.00000  -0.00057  -0.00057   2.38719
    R4        2.68998  -0.00002   0.00000  -0.00053  -0.00053   2.68945
    A4        1.80091   0.00004   0.00000   0.00074   0.00074   1.80165
    D4        4.33536   0.00002   0.00000  -0.00007  -0.00007   4.33529
    A6        1.57162  -0.00002   0.00000  -0.00025  -0.00025   1.57137
    D6        3.14129   0.00001   0.00000   0.00033   0.00033   3.14162
    R6        1.68291  -0.00009   0.00000  -0.00037  -0.00037   1.68255
    A5        1.57080  -0.00002   0.00000   0.00000   0.00000   1.57080
    D5        3.14159  -0.00000   0.00000   0.00000   0.00000   3.14159
    R5        1.88973  -0.00000   0.00000   0.00000   0.00000   1.88973
         Item               Value     Threshold  Converged?
 Maximum Force            0.000093     0.000450     YES
 RMS     Force            0.000034     0.000300     YES
 Maximum Displacement     0.000738     0.001800     YES
 RMS     Displacement     0.000322     0.001200     YES
 Predicted change in Energy=-5.399073D-08
 Optimization completed.
    -- Stationary point found.
                       ----------------------------
                       !   Optimized Parameters   !
                       ! (Angstroms and Degrees)  !
 ----------------------                            ----------------------
 !      Name          Value   Derivative information (Atomic Units)     !
 ------------------------------------------------------------------------
 !       R1          1.0883   -DE/DX =    0.0                           !
 !       R2          1.0883   -DE/DX =    0.0                           !
 !       A2        114.9334   -DE/DX =    0.0                           !
 !       R3          1.0883   -DE/DX =    0.0                           !
 !       A3        114.948    -DE/DX =    0.0                           !
 !       D3        136.8084   -DE/DX =    0.0                           !
 !       R4          1.4235   -DE/DX =    0.0                           !
 !       A4        103.1847   -DE/DX =    0.0                           !
 !       D4        248.3976   -DE/DX =    0.0                           !
 !       A6         90.0469   -DE/DX =    0.0                           !
 !       D6        179.9826   -DE/DX =    0.0                           !
 !       R6          0.8906   -DE/DX =   -0.0001                        !
 !       A5         90.0      -DE/DX =    0.0                           !
 !       D5        180.0      -DE/DX =    0.0                           !
 !       R5          1.0      -DE/DX =    0.0                           !
 ------------------------------------------------------------------------
 GradGradGradGradGradGradGradGradGradGradGradGradGradGradGradGradGradGrad

 Largest change from initial coordinates is atom    3       1.827 Angstoms.
 Leave Link  103 at Thu Sep  5 23:09:19 2019, MaxMem=  2684354560 cpu:         0.2
 (Enter /soft/gaussian/09-e.01/g09/l202.exe)
 ---------------------------------------------------------------------------------------------------
                            Z-MATRIX (ANGSTROMS AND DEGREES)
   CD    Cent   Atom    N1       Length/X        N2       Alpha/Y        N3        Beta/Z          J
 ---------------------------------------------------------------------------------------------------
      1      1  C 
      2      2  H        1   1.088342(     1)
      3      3  H        1   1.088347(     2)      2  114.933(     7)
      4      4  H        1   1.088335(     3)      2  114.948(     8)      3  136.808(    12)      0
      5      5  H        1   1.423475(     4)      2  103.185(     9)      3  248.398(    13)      0
      6         X        5   1.000000(     5)      1   90.000(    10)      2  180.000(    14)      0
      7      6  H        5   0.890560(     6)      6   90.047(    11)      1  179.983(    15)      0
 ---------------------------------------------------------------------------------------------------
                         Z-Matrix orientation:                         
 ---------------------------------------------------------------------
 Center     Atomic      Atomic             Coordinates (Angstroms)
 Number     Number       Type             X           Y           Z
 ---------------------------------------------------------------------
      1          6           0        0.000000    0.000000    0.000000
      2          1           0        0.000000    0.000000    1.088342
      3          1           0        0.986911    0.000000   -0.458809
      4          1           0       -0.719433   -0.675395   -0.459055
      5          1           0       -0.510257    1.288605   -0.324681
      6         -1           0       -0.426282    1.076535   -1.298321
      7          1           0       -0.829295    2.095040   -0.527099
 ---------------------------------------------------------------------
                    Distance matrix (angstroms):
                    1          2          3          4          5
     1  C    0.000000
     2  H    1.088342   0.000000
     3  H    1.088347   1.835122   0.000000
     4  H    1.088335   1.835260   1.835148   0.000000
     5  H    1.423475   1.979267   1.979900   1.979673   0.000000
     6  X    1.739621   2.652698   1.964898   1.964577   1.000000
     7  H    2.314035   2.772467   2.773529   2.773447   0.890560
                    6          7
     6  X    0.000000
     7  H    1.339610   0.000000
 Stoichiometry    CH5(2)
 Framework group  C1[X(CH5)]
 Deg. of freedom    12
 Full point group                 C1      NOp   1
 RotChk:  IX=0 Diff= 2.40D-16
 Largest Abelian subgroup         C1      NOp   1
 Largest concise Abelian subgroup C1      NOp   1
                         Standard orientation:                         
 ---------------------------------------------------------------------
 Center     Atomic      Atomic             Coordinates (Angstroms)
 Number     Number       Type             X           Y           Z
 ---------------------------------------------------------------------
      1          6           0        0.271940   -0.000008   -0.000023
      2          1           0        0.519741   -0.865742   -0.611241
      3          1           0        0.521231   -0.096704    1.054967
      4          1           0        0.521016    0.961889   -0.444082
      5          1           0       -1.151535    0.000515    0.000259
      6          1           0       -2.042095    0.000091    0.000237
 ---------------------------------------------------------------------
 Rotational constants (GHZ):    148.8937423     57.4987552     57.4966972
 Leave Link  202 at Thu Sep  5 23:09:19 2019, MaxMem=  2684354560 cpu:         0.1
 (Enter /soft/gaussian/09-e.01/g09/l601.exe)
 Copying SCF densities to generalized density rwf, IOpCl= 1 IROHF=0.

 **********************************************************************

            Population analysis using the SCF density.

 **********************************************************************

 Orbital symmetries:
 Alpha Orbitals:
       Occupied  (A) (A) (A) (A) (A) (A)
       Virtual   (A) (A) (A) (A) (A) (A) (A) (A) (A) (A) (A) (A)
                 (A) (A) (A) (A) (A) (A) (A)
 Beta  Orbitals:
       Occupied  (A) (A) (A) (A) (A)
       Virtual   (A) (A) (A) (A) (A) (A) (A) (A) (A) (A) (A) (A)
                 (A) (A) (A) (A) (A) (A) (A) (A)
 The electronic state is 2-A.
 Alpha  occ. eigenvalues --  -10.19732  -0.70205  -0.44784  -0.41633  -0.41630
 Alpha  occ. eigenvalues --   -0.21334
 Alpha virt. eigenvalues --    0.11444   0.16961   0.16963   0.19984   0.52465
 Alpha virt. eigenvalues --    0.52468   0.55535   0.69360   0.89346   0.89350
 Alpha virt. eigenvalues --    0.92272   0.99880   1.19279   1.63573   1.63575
 Alpha virt. eigenvalues --    2.02037   2.20517   2.20524   4.16351
  Beta  occ. eigenvalues --  -10.18628  -0.67436  -0.40868  -0.40865  -0.40609
  Beta virt. eigenvalues --   -0.07370   0.12286   0.17613   0.17615   0.22880
  Beta virt. eigenvalues --    0.52929   0.52932   0.60481   0.73216   0.90063
  Beta virt. eigenvalues --    0.90066   0.94380   1.00835   1.21714   1.67786
  Beta virt. eigenvalues --    1.67788   2.07256   2.22103   2.22109   4.18906
          Condensed to atoms (all electrons):
               1          2          3          4          5          6
     1  C    5.415575   0.370435   0.370415   0.370412   0.126181  -0.130265
     2  H    0.370435   0.514490  -0.026115  -0.026101  -0.012834   0.002631
     3  H    0.370415  -0.026115   0.514486  -0.026112  -0.012783   0.002633
     4  H    0.370412  -0.026101  -0.026112   0.514470  -0.012788   0.002632
     5  H    0.126181  -0.012834  -0.012783  -0.012788   0.651033   0.258641
     6  H   -0.130265   0.002631   0.002633   0.002632   0.258641   0.875983
          Atomic-Atomic Spin Densities.
               1          2          3          4          5          6
     1  C    0.923729  -0.021643  -0.021634  -0.021643   0.018107  -0.147187
     2  H   -0.021643  -0.016122   0.003836   0.003836   0.002637   0.004709
     3  H   -0.021634   0.003836  -0.016111   0.003836   0.002624   0.004701
     4  H   -0.021643   0.003836   0.003836  -0.016101   0.002627   0.004703
     5  H    0.018107   0.002637   0.002624   0.002627  -0.168341  -0.006904
     6  H   -0.147187   0.004709   0.004701   0.004703  -0.006904   0.627735
 Mulliken charges and spin densities:
               1          2
     1  C   -0.522753   0.729730
     2  H    0.177494  -0.022748
     3  H    0.177475  -0.022748
     4  H    0.177488  -0.022741
     5  H    0.002551  -0.149250
     6  H   -0.012255   0.487757
 Sum of Mulliken charges =  -0.00000   1.00000
 Mulliken charges and spin densities with hydrogens summed into heavy atoms:
               1          2
     1  C   -0.000000   1.000000
 Electronic spatial extent (au):  <R**2>=             58.2213
 Charge=             -0.0000 electrons
 Dipole moment (field-independent basis, Debye):
    X=              0.7565    Y=             -0.0003    Z=             -0.0002  Tot=              0.7565
 Quadrupole moment (field-independent basis, Debye-Ang):
   XX=            -11.2306   YY=             -9.2326   ZZ=             -9.2331
   XY=              0.0010   XZ=              0.0011   YZ=             -0.0000
 Traceless Quadrupole moment (field-independent basis, Debye-Ang):
   XX=             -1.3318   YY=              0.6662   ZZ=              0.6656
   XY=              0.0010   XZ=              0.0011   YZ=             -0.0000
 Octapole moment (field-independent basis, Debye-Ang**2):
  XXX=              4.5648  YYY=              0.1963  ZZZ=              0.7025  XYY=              1.4016
  XXY=              0.0001  XXZ=              0.0003  XZZ=              1.4020  YZZ=             -0.1979
  YYZ=             -0.7039  XYZ=             -0.0006
 Hexadecapole moment (field-independent basis, Debye-Ang**3):
 XXXX=            -58.7933 YYYY=            -15.9600 ZZZZ=            -15.9603 XXXY=              0.0030
 XXXZ=              0.0027 YYYX=              0.1251 YYYZ=              0.0005 ZZZX=              0.4410
 ZZZY=             -0.0001 XXYY=            -11.8351 XXZZ=            -11.8344 YYZZ=             -5.3196
 XXYZ=             -0.0007 YYXZ=             -0.4382 ZZXY=             -0.1225
 N-N= 1.518828374767D+01 E-N=-1.242823693734D+02  KE= 4.057472255832D+01
                          Isotropic Fermi Contact Couplings
        Atom                 a.u.       MegaHertz       Gauss      10(-4) cm-1
     1  C(13)              0.19679     221.23338      78.94157      73.79551
     2  H(1)              -0.00765     -34.19852     -12.20288     -11.40740
     3  H(1)              -0.00764     -34.16897     -12.19234     -11.39754
     4  H(1)              -0.00764     -34.16503     -12.19093     -11.39623
     5  H(1)              -0.03809    -170.26744     -60.75565     -56.79510
     6  H(1)               0.16384     732.34684     261.31955     244.28461
 --------------------------------------------------------
       Center         ----  Spin Dipole Couplings  ----
                      3XX-RR        3YY-RR        3ZZ-RR
 --------------------------------------------------------
     1   Atom        0.757042     -0.378524     -0.378518
     2   Atom       -0.000334      0.016265     -0.015931
     3   Atom       -0.000286     -0.047126      0.047412
     4   Atom       -0.000295      0.031332     -0.031037
     5   Atom        0.214381     -0.107191     -0.107190
     6   Atom       -0.012773      0.006387      0.006386
 --------------------------------------------------------
                        XY            XZ            YZ
 --------------------------------------------------------
     1   Atom       -0.000648     -0.000625      0.000003
     2   Atom       -0.015981     -0.011289      0.045321
     3   Atom       -0.001818      0.019542     -0.008738
     4   Atom        0.017795     -0.008249     -0.036589
     5   Atom        0.000023     -0.000007      0.000000
     6   Atom       -0.000016     -0.000001      0.000000
 --------------------------------------------------------


 ---------------------------------------------------------------------------------
              Anisotropic Spin Dipole Couplings in Principal Axis System
 ---------------------------------------------------------------------------------

       Atom             a.u.   MegaHertz   Gauss  10(-4) cm-1        Axes

              Baa    -0.3785   -50.794   -18.125   -16.943  0.0003  0.9157 -0.4019
     1 C(13)  Bbb    -0.3785   -50.793   -18.124   -16.943  0.0007  0.4019  0.9157
              Bcc     0.7570   101.588    36.249    33.886  1.0000 -0.0006 -0.0006
 
              Baa    -0.0479   -25.572    -9.125    -8.530  0.0001 -0.5767  0.8169
     2 H(1)   Bbb    -0.0072    -3.859    -1.377    -1.287  0.9431  0.2717  0.1917
              Bcc     0.0552    29.431    10.502     9.817 -0.3325  0.7704  0.5439
 
              Baa    -0.0479   -25.572    -9.125    -8.530  0.0006  0.9958  0.0911
     3 H(1)   Bbb    -0.0072    -3.859    -1.377    -1.287  0.9427  0.0298 -0.3323
              Bcc     0.0552    29.431    10.502     9.817  0.3337 -0.0861  0.9387
 
              Baa    -0.0479   -25.572    -9.125    -8.530  0.0007  0.4190  0.9080
     4 H(1)   Bbb    -0.0072    -3.859    -1.377    -1.287  0.9428 -0.3031  0.1391
              Bcc     0.0552    29.431    10.502     9.817  0.3335  0.8559 -0.3952
 
              Baa    -0.1072   -57.192   -20.407   -19.077 -0.0001  0.9518 -0.3067
     5 H(1)   Bbb    -0.1072   -57.192   -20.407   -19.077 -0.0000  0.3067  0.9518
              Bcc     0.2144   114.383    40.815    38.154  1.0000  0.0001 -0.0000
 
              Baa    -0.0128    -6.815    -2.432    -2.273  1.0000  0.0008  0.0001
     6 H(1)   Bbb     0.0064     3.407     1.216     1.137  0.0004 -0.4906  0.8714
              Bcc     0.0064     3.408     1.216     1.137 -0.0008  0.8714  0.4906
 

 ---------------------------------------------------------------------------------

 No NMR shielding tensors so no spin-rotation constants.
 Leave Link  601 at Thu Sep  5 23:09:19 2019, MaxMem=  2684354560 cpu:         3.1
 (Enter /soft/gaussian/09-e.01/g09/l9999.exe)
 1\1\GINC-B442\FTS\UB3LYP\6-31G(d)\C1H5(2)\ELLIOTT\05-Sep-2019\1\\#P b3
 lyp/6-31g* # SCF=(xqc) # POpt=(CALCFC,TS,NOEIGEN) # int=ultrafine\\com
 ment:\\0,2\C\H,1,R1\H,1,R2,2,A2\H,1,R3,2,A3,3,D3,0\H,1,R4,2,A4,3,D4,0\
 X,5,R5,1,A5,2,D5,0\H,5,R6,6,A6,1,D6,0\\R1=1.08834189\R2=1.0883474\A2=1
 14.93344656\R3=1.08833512\A3=114.94803219\D3=136.808352\R4=1.42347531\
 A4=103.18467969\D4=248.39759986\A6=90.04691272\D6=179.98257321\R6=0.89
 055975\A5=90.\D5=180.\R5=1.\\Version=ES64L-G09RevE.01\State=2-A\HF=-41
 .0020286\S2=0.758455\S2-1=0.\S2A=0.750023\RMSD=7.070e-09\RMSF=3.469e-0
 5\Dipole=0.1066668,-0.2694506,0.0679141\Quadrupole=0.3043795,-0.722034
 8,0.4176552,0.4816886,-0.1213569,0.3071596\PG=C01 [X(C1H5)]\\@


 ALMOST ANYTHING IS EASIER TO GET INTO THAN OUT OF.

                         -- AGNES ALLEN'S LAW FROM
                PAUL DICKSON'S "THE OFFICIAL RULES"
 Job cpu time:       0 days  0 hours  5 minutes 39.1 seconds.
 File lengths (MBytes):  RWF=     87 Int=      0 D2E=      0 Chk=      2 Scr=      2
 Normal termination of Gaussian 09 at Thu Sep  5 23:09:19 2019.
