 Entering Gaussian System, Link 0=g09
 Input=run.inp
 Output=run.out
 Initial command:
 /soft/gaussian/09-e.01/g09/l1.exe "/blues/gpfs/home/elliott/Packages/PACC/moldriver/rcdriver/rundir/RXN/CH3.H2/MDUSDFXREFXETQ/0_0/2_1/UHFFFAOYSA-N/CH4.H/HXBDELFRWIQQII/0_0/1_2/UHFFFAOYSA-N/2/ezvlpJU/SCANS/R6/03/RUN/OPTI/A00/Gau-41418.inp" -scrdir="/blues/gpfs/home/elliott/Packages/PACC/moldriver/rcdriver/rundir/RXN/CH3.H2/MDUSDFXREFXETQ/0_0/2_1/UHFFFAOYSA-N/CH4.H/HXBDELFRWIQQII/0_0/1_2/UHFFFAOYSA-N/2/ezvlpJU/SCANS/R6/03/RUN/OPTI/A00/"
 Entering Link 1 = /soft/gaussian/09-e.01/g09/l1.exe PID=     41419.
  
 Copyright (c) 1988,1990,1992,1993,1995,1998,2003,2009,2015,
            Gaussian, Inc.  All Rights Reserved.
  
 This is part of the Gaussian(R) 09 program.  It is based on
 the Gaussian(R) 03 system (copyright 2003, Gaussian, Inc.),
 the Gaussian(R) 98 system (copyright 1998, Gaussian, Inc.),
 the Gaussian(R) 94 system (copyright 1995, Gaussian, Inc.),
 the Gaussian 92(TM) system (copyright 1992, Gaussian, Inc.),
 the Gaussian 90(TM) system (copyright 1990, Gaussian, Inc.),
 the Gaussian 88(TM) system (copyright 1988, Gaussian, Inc.),
 the Gaussian 86(TM) system (copyright 1986, Carnegie Mellon
 University), and the Gaussian 82(TM) system (copyright 1983,
 Carnegie Mellon University). Gaussian is a federally registered
 trademark of Gaussian, Inc.
  
 This software contains proprietary and confidential information,
 including trade secrets, belonging to Gaussian, Inc.
  
 This software is provided under written license and may be
 used, copied, transmitted, or stored only in accord with that
 written license.
  
 The following legend is applicable only to US Government
 contracts under FAR:
  
                    RESTRICTED RIGHTS LEGEND
  
 Use, reproduction and disclosure by the US Government is
 subject to restrictions as set forth in subparagraphs (a)
 and (c) of the Commercial Computer Software - Restricted
 Rights clause in FAR 52.227-19.
  
 Gaussian, Inc.
 340 Quinnipiac St., Bldg. 40, Wallingford CT 06492
  
  
 ---------------------------------------------------------------
 Warning -- This program may not be used in any manner that
 competes with the business of Gaussian, Inc. or will provide
 assistance to any competitor of Gaussian, Inc.  The licensee
 of this program is prohibited from giving any competitor of
 Gaussian, Inc. access to this program.  By using this program,
 the user acknowledges that Gaussian, Inc. is engaged in the
 business of creating and licensing software in the field of
 computational chemistry and represents and warrants to the
 licensee that it is not a competitor of Gaussian, Inc. and that
 it will not use this program in any manner prohibited above.
 ---------------------------------------------------------------
  

 Cite this work as:
 Gaussian 09, Revision E.01,
 M. J. Frisch, G. W. Trucks, H. B. Schlegel, G. E. Scuseria, 
 M. A. Robb, J. R. Cheeseman, G. Scalmani, V. Barone, B. Mennucci, 
 G. A. Petersson, H. Nakatsuji, M. Caricato, X. Li, H. P. Hratchian, 
 A. F. Izmaylov, J. Bloino, G. Zheng, J. L. Sonnenberg, M. Hada, 
 M. Ehara, K. Toyota, R. Fukuda, J. Hasegawa, M. Ishida, T. Nakajima, 
 Y. Honda, O. Kitao, H. Nakai, T. Vreven, J. A. Montgomery, Jr., 
 J. E. Peralta, F. Ogliaro, M. Bearpark, J. J. Heyd, E. Brothers, 
 K. N. Kudin, V. N. Staroverov, T. Keith, R. Kobayashi, J. Normand, 
 K. Raghavachari, A. Rendell, J. C. Burant, S. S. Iyengar, J. Tomasi, 
 M. Cossi, N. Rega, J. M. Millam, M. Klene, J. E. Knox, J. B. Cross, 
 V. Bakken, C. Adamo, J. Jaramillo, R. Gomperts, R. E. Stratmann, 
 O. Yazyev, A. J. Austin, R. Cammi, C. Pomelli, J. W. Ochterski, 
 R. L. Martin, K. Morokuma, V. G. Zakrzewski, G. A. Voth, 
 P. Salvador, J. J. Dannenberg, S. Dapprich, A. D. Daniels, 
 O. Farkas, J. B. Foresman, J. V. Ortiz, J. Cioslowski, 
 and D. J. Fox, Gaussian, Inc., Wallingford CT, 2013.
 
 ******************************************
 Gaussian 09:  ES64L-G09RevE.01 30-Nov-2015
                23-Aug-2019 
 ******************************************
 %mem=20GB
 %NProcShared=10
 Will use up to   10 processors via shared memory.
 -----------------------------------------------------
 #P b3lyp/6-31g* # SCF=(xqc) # POpt=() # int=ultrafine
 -----------------------------------------------------
 1/10=7,14=-1,26=4,38=1/1,3;
 2/12=2,17=6,18=5,29=3,40=1/2;
 3/5=1,6=6,7=1,11=2,16=1,25=1,30=1,71=1,74=-5,75=-5/1,2,3;
 4//1;
 5/5=2,8=3,13=1,38=5/2,8;
 6/7=2,8=2,9=2,10=2,28=1/1;
 7/29=1/1,2,3,16;
 1/10=7,14=-1,26=4/3(2);
 2/29=3/2;
 99//99;
 2/29=3/2;
 3/5=1,6=6,7=1,11=2,16=1,25=1,30=1,71=1,74=-5,75=-5/1,2,3;
 4/5=5,16=3,69=1/1;
 5/5=2,8=3,13=1,38=5/2,8;
 7//1,2,3,16;
 1/14=-1,26=4/3(-5);
 2/29=3/2;
 6/7=2,8=2,9=2,10=2,19=2,28=1/1;
 99/9=1/99;
 Leave Link    1 at Fri Aug 23 16:08:21 2019, MaxMem=  2684354560 cpu:         5.4
 (Enter /soft/gaussian/09-e.01/g09/l101.exe)
 --------
 comment:
 --------
 Symbolic Z-matrix:
 Charge =  0 Multiplicity = 2
 C
 H                    1    R1
 H                    1    R2       2    A2
 H                    1    R3       2    A3       3    D3       0
 H                    1    R4       2    A4       3    D4       0
 X                    5    R5       1    A5       2    D5       0
 H                    5    R6       6    A6       1    D6       0
       Variables:
  R1                    1.0922                   
  R2                    1.0922                   
  A2                  109.471                    
  R3                    1.0922                   
  A3                  109.471                    
  D3                  120.                       
  R4                    1.0922                   
  A4                  109.471                    
  D4                  240.                       
  D6                  180.                       
  A6                   85.                       
       Constants:
  R5                    1.                       
  A5                   90.                       
  D5                  180.                       
  R6                    1.16857                  
 
     3 tetrahedral angles replaced.
 NAtoms=      6 NQM=        6 NQMF=       0 NMMI=      0 NMMIF=      0
                NMic=       0 NMicF=      0.
    3 tetrahedral angles replaced.
                    Isotopes and Nuclear Properties:
 (Nuclear quadrupole moments (NQMom) in fm**2, nuclear magnetic moments (NMagM)
  in nuclear magnetons)

  Atom         1           2           3           4           5           6
 IAtWgt=          12           1           1           1           1           1
 AtmWgt=  12.0000000   1.0078250   1.0078250   1.0078250   1.0078250   1.0078250
 NucSpn=           0           1           1           1           1           1
 AtZEff=   0.0000000   0.0000000   0.0000000   0.0000000   0.0000000   0.0000000
 NQMom=    0.0000000   0.0000000   0.0000000   0.0000000   0.0000000   0.0000000
 NMagM=    0.0000000   2.7928460   2.7928460   2.7928460   2.7928460   2.7928460
 AtZNuc=   6.0000000   1.0000000   1.0000000   1.0000000   1.0000000   1.0000000
 Leave Link  101 at Fri Aug 23 16:08:21 2019, MaxMem=  2684354560 cpu:         0.6
 (Enter /soft/gaussian/09-e.01/g09/l103.exe)

 GradGradGradGradGradGradGradGradGradGradGradGradGradGradGradGradGradGrad
 Berny optimization.
 Initialization pass.
                       ----------------------------
                       !    Initial Parameters    !
                       ! (Angstroms and Degrees)  !
 ----------------------                            ----------------------
 !      Name          Value   Derivative information (Atomic Units)     !
 ------------------------------------------------------------------------
 !       R1          1.0922   estimate D2E/DX2                          !
 !       R2          1.0922   estimate D2E/DX2                          !
 !       A2        109.4712   estimate D2E/DX2                          !
 !       R3          1.0922   estimate D2E/DX2                          !
 !       A3        109.4712   estimate D2E/DX2                          !
 !       D3        120.0      estimate D2E/DX2                          !
 !       R4          1.0922   estimate D2E/DX2                          !
 !       A4        109.4712   estimate D2E/DX2                          !
 !       D4        240.0      estimate D2E/DX2                          !
 !       D6        180.0      estimate D2E/DX2                          !
 !       A6         85.0      estimate D2E/DX2                          !
 !       R5          1.0      Frozen                                    !
 !       A5         90.0      Frozen                                    !
 !       D5        180.0      Frozen                                    !
 !       R6          1.1686   Frozen                                    !
 ------------------------------------------------------------------------
 Trust Radius=3.00D-01 FncErr=1.00D-07 GrdErr=1.00D-06
 Number of steps in this run=     25 maximum allowed number of steps=    100.
 GradGradGradGradGradGradGradGradGradGradGradGradGradGradGradGradGradGrad

 Leave Link  103 at Fri Aug 23 16:08:21 2019, MaxMem=  2684354560 cpu:         0.1
 (Enter /soft/gaussian/09-e.01/g09/l202.exe)
 ---------------------------------------------------------------------------------------------------
                            Z-MATRIX (ANGSTROMS AND DEGREES)
   CD    Cent   Atom    N1       Length/X        N2       Alpha/Y        N3        Beta/Z          J
 ---------------------------------------------------------------------------------------------------
      1      1  C 
      2      2  H        1   1.092201(     1)
      3      3  H        1   1.092201(     2)      2  109.471(     7)
      4      4  H        1   1.092201(     3)      2  109.471(     8)      3  120.000(    12)      0
      5      5  H        1   1.092201(     4)      2  109.471(     9)      3  240.000(    13)      0
      6         X        5   1.000000(     5)      1   90.000(    10)      2  180.000(    14)      0
      7      6  H        5   1.168571(     6)      6   85.000(    11)      1  180.000(    15)      0
 ---------------------------------------------------------------------------------------------------
                         Z-Matrix orientation:                         
 ---------------------------------------------------------------------
 Center     Atomic      Atomic             Coordinates (Angstroms)
 Number     Number       Type             X           Y           Z
 ---------------------------------------------------------------------
      1          6           0        0.000000    0.000000    0.000000
      2          1           0        0.000000    0.000000    1.092201
      3          1           0        1.029737    0.000000   -0.364067
      4          1           0       -0.514868   -0.891778   -0.364067
      5          1           0       -0.514868    0.891778   -0.364067
      6         -1           0       -0.348202    0.603103   -1.306876
      7          1           0       -1.046667    1.812881   -0.848131
 ---------------------------------------------------------------------
                    Distance matrix (angstroms):
                    1          2          3          4          5
     1  C    0.000000
     2  H    1.092201   0.000000
     3  H    1.092201   1.783557   0.000000
     4  H    1.092201   1.783557   1.783557   0.000000
     5  H    1.092201   1.783557   1.783557   1.783557   0.000000
     6  X    1.480845   2.498109   1.775201   1.775201   1.000000
     7  H    2.258623   2.854284   2.798627   2.798627   1.168571
                    6          7
     6  X    0.000000
     7  H    1.470327   0.000000
 This structure is nearly, but not quite of a higher symmetry.
 Consider Symm=Loose if the higher symmetry is desired.
 Stoichiometry    CH5(2)
 Framework group  CS[SG(CH3),X(H2)]
 Deg. of freedom     8
 Full point group                 CS      NOp   2
 Largest Abelian subgroup         CS      NOp   2
 Largest concise Abelian subgroup CS      NOp   2
                         Standard orientation:                         
 ---------------------------------------------------------------------
 Center     Atomic      Atomic             Coordinates (Angstroms)
 Number     Number       Type             X           Y           Z
 ---------------------------------------------------------------------
      1          6           0        0.000000    0.205329    0.000000
      2          1           0        1.012273    0.615460    0.000000
      3          1           0       -0.530762    0.545809    0.891778
      4          1           0       -0.530762    0.545809   -0.891778
      5          1           0        0.049250   -0.885761   -0.000000
      6          1           0       -0.000000   -2.053293   -0.000000
 ---------------------------------------------------------------------
 Rotational constants (GHZ):    157.6370072     62.8333429     62.8333429
 Leave Link  202 at Fri Aug 23 16:08:22 2019, MaxMem=  2684354560 cpu:         0.1
 (Enter /soft/gaussian/09-e.01/g09/l301.exe)
 Standard basis: 6-31G(d) (6D, 7F)
 Ernie: Thresh=  0.10000D-02 Tol=  0.10000D-05 Strict=F.
 There are    19 symmetry adapted cartesian basis functions of A'  symmetry.
 There are     6 symmetry adapted cartesian basis functions of A"  symmetry.
 There are    19 symmetry adapted basis functions of A'  symmetry.
 There are     6 symmetry adapted basis functions of A"  symmetry.
    25 basis functions,    48 primitive gaussians,    25 cartesian basis functions
     6 alpha electrons        5 beta electrons
       nuclear repulsion energy        15.8304742144 Hartrees.
 IExCor=  402 DFT=T Ex+Corr=B3LYP ExCW=0 ScaHFX=  0.200000
 ScaDFX=  0.800000  0.720000  1.000000  0.810000 ScalE2=  1.000000  1.000000
 IRadAn=      5 IRanWt=     -1 IRanGd=            0 ICorTp=0 IEmpDi=  4
 NAtoms=    6 NActive=    6 NUniq=    5 SFac= 1.44D+00 NAtFMM=   60 NAOKFM=F Big=F
 Integral buffers will be    131072 words long.
 Raffenetti 2 integral format.
 Two-electron integral symmetry is turned on.
 Leave Link  301 at Fri Aug 23 16:08:22 2019, MaxMem=  2684354560 cpu:         0.6
 (Enter /soft/gaussian/09-e.01/g09/l302.exe)
 NPDir=0 NMtPBC=     1 NCelOv=     1 NCel=       1 NClECP=     1 NCelD=      1
         NCelK=      1 NCelE2=     1 NClLst=     1 CellRange=     0.0.
 One-electron integrals computed using PRISM.
 One-electron integral symmetry used in STVInt
 NBasis=    25 RedAO= T EigKep=  1.58D-02  NBF=    19     6
 NBsUse=    25 1.00D-06 EigRej= -1.00D+00 NBFU=    19     6
 Precomputing XC quadrature grid using
 IXCGrd= 4 IRadAn=           5 IRanWt=          -1 IRanGd=           0 AccXCQ= 0.00D+00.
 Generated NRdTot=       0 NPtTot=           0 NUsed=           0 NTot=          32
 NSgBfM=    25    25    25    25    25 MxSgAt=     6 MxSgA2=     6.
 Leave Link  302 at Fri Aug 23 16:08:22 2019, MaxMem=  2684354560 cpu:         1.7
 (Enter /soft/gaussian/09-e.01/g09/l303.exe)
 DipDrv:  MaxL=1.
 Leave Link  303 at Fri Aug 23 16:08:22 2019, MaxMem=  2684354560 cpu:         0.2
 (Enter /soft/gaussian/09-e.01/g09/l401.exe)
 ExpMin= 1.61D-01 ExpMax= 3.05D+03 ExpMxC= 4.57D+02 IAcc=3 IRadAn=         5 AccDes= 0.00D+00
 Harris functional with IExCor=  402 and IRadAn=       5 diagonalized for initial guess.
 HarFok:  IExCor=  402 AccDes= 0.00D+00 IRadAn=         5 IDoV= 1 UseB2=F ITyADJ=14
 ICtDFT=  3500011 ScaDFX=  1.000000  1.000000  1.000000  1.000000
 FoFCou: FMM=F IPFlag=           0 FMFlag=      100000 FMFlg1=           0
         NFxFlg=           0 DoJE=T BraDBF=F KetDBF=T FulRan=T
         wScrn=  0.000000 ICntrl=     500 IOpCl=  0 I1Cent=   200000004 NGrid=           0
         NMat0=    1 NMatS0=      1 NMatT0=    0 NMatD0=    1 NMtDS0=    0 NMtDT0=    0
 Petite list used in FoFCou.
 Harris En= -41.0150287688806    
 JPrj=0 DoOrth=F DoCkMO=F.
 Initial guess orbital symmetries:
 Alpha Orbitals:
       Occupied  (A') (A') (A') (A") (A') (A')
       Virtual   (A') (A') (A") (A') (A") (A') (A') (A') (A") (A')
                 (A') (A') (A') (A") (A') (A") (A') (A') (A')
 Beta  Orbitals:
       Occupied  (A') (A') (A') (A") (A')
       Virtual   (A') (A') (A') (A") (A') (A") (A') (A') (A') (A")
                 (A') (A') (A') (A') (A") (A') (A") (A') (A') (A')
 The electronic state of the initial guess is 2-A'.
 Initial guess <Sx>= 0.0000 <Sy>= 0.0000 <Sz>= 0.5000 <S**2>= 0.7500 S= 0.5000
 Leave Link  401 at Fri Aug 23 16:08:22 2019, MaxMem=  2684354560 cpu:         1.8
 (Enter /soft/gaussian/09-e.01/g09/l502.exe)
 UHF open shell SCF:
 Using DIIS extrapolation, IDIIS=  1040.
 Integral symmetry usage will be decided dynamically.
 Keep R1 and R2 ints in memory in symmetry-blocked form, NReq=929304.
 IVT=        8311 IEndB=        8311 NGot=  2684354560 MDV=  2684287457
 LenX=  2684287457 LenY=  2684286391
 Requested convergence on RMS density matrix=1.00D-08 within  64 cycles.
 Requested convergence on MAX density matrix=1.00D-06.
 Requested convergence on             energy=1.00D-06.
 No special actions if energy rises.
 FoFCou: FMM=F IPFlag=           0 FMFlag=           0 FMFlg1=           0
         NFxFlg=           0 DoJE=F BraDBF=F KetDBF=F FulRan=T
         wScrn=  0.000000 ICntrl=     600 IOpCl=  0 I1Cent=           0 NGrid=           0
         NMat0=    1 NMatS0=    325 NMatT0=    0 NMatD0=    1 NMtDS0=    0 NMtDT0=    0
 Petite list used in FoFCou.
 Integral accuracy reduced to 1.0D-05 until final iterations.

 Cycle   1  Pass 0  IDiag  1:
 E= -40.9131808339832    
 DIIS: error= 7.22D-02 at cycle   1 NSaved=   1.
 NSaved= 1 IEnMin= 1 EnMin= -40.9131808339832     IErMin= 1 ErrMin= 7.22D-02
 ErrMax= 7.22D-02  0.00D+00 EMaxC= 1.00D-01 BMatC= 3.42D-01 BMatP= 3.42D-01
 IDIUse=3 WtCom= 2.78D-01 WtEn= 7.22D-01
 Coeff-Com:  0.100D+01
 Coeff-En:   0.100D+01
 Coeff:      0.100D+01
 Gap=     0.421 Goal=   None    Shift=    0.000
 Gap=     0.208 Goal=   None    Shift=    0.000
 GapD=    0.208 DampG=1.000 DampE=0.500 DampFc=0.5000 IDamp=-1.
 Damping current iteration by 5.00D-01
 RMSDP=2.67D-02 MaxDP=2.51D-01              OVMax= 2.60D-01

 Cycle   2  Pass 0  IDiag  1:
 E= -40.9539681070337     Delta-E=       -0.040787273050 Rises=F Damp=T
 DIIS: error= 1.32D-02 at cycle   2 NSaved=   2.
 NSaved= 2 IEnMin= 2 EnMin= -40.9539681070337     IErMin= 2 ErrMin= 1.32D-02
 ErrMax= 1.32D-02  0.00D+00 EMaxC= 1.00D-01 BMatC= 1.06D-02 BMatP= 3.42D-01
 IDIUse=3 WtCom= 8.68D-01 WtEn= 1.32D-01
 Coeff-Com:  0.942D-01 0.906D+00
 Coeff-En:   0.162D+00 0.838D+00
 Coeff:      0.103D+00 0.897D+00
 Gap=     0.386 Goal=   None    Shift=    0.000
 Gap=     0.305 Goal=   None    Shift=    0.000
 RMSDP=3.32D-03 MaxDP=6.07D-02 DE=-4.08D-02 OVMax= 1.66D-01

 Cycle   3  Pass 0  IDiag  1:
 E= -41.0068620704169     Delta-E=       -0.052893963383 Rises=F Damp=F
 DIIS: error= 1.49D-03 at cycle   3 NSaved=   3.
 NSaved= 3 IEnMin= 3 EnMin= -41.0068620704169     IErMin= 3 ErrMin= 1.49D-03
 ErrMax= 1.49D-03  0.00D+00 EMaxC= 1.00D-01 BMatC= 1.63D-04 BMatP= 1.06D-02
 IDIUse=3 WtCom= 9.85D-01 WtEn= 1.49D-02
 Coeff-Com: -0.126D-02-0.576D-01 0.106D+01
 Coeff-En:   0.000D+00 0.000D+00 0.100D+01
 Coeff:     -0.124D-02-0.568D-01 0.106D+01
 Gap=     0.374 Goal=   None    Shift=    0.000
 Gap=     0.318 Goal=   None    Shift=    0.000
 RMSDP=9.00D-04 MaxDP=1.08D-02 DE=-5.29D-02 OVMax= 7.23D-03

 Cycle   4  Pass 0  IDiag  1:
 E= -41.0069618136760     Delta-E=       -0.000099743259 Rises=F Damp=F
 DIIS: error= 3.54D-04 at cycle   4 NSaved=   4.
 NSaved= 4 IEnMin= 4 EnMin= -41.0069618136760     IErMin= 4 ErrMin= 3.54D-04
 ErrMax= 3.54D-04  0.00D+00 EMaxC= 1.00D-01 BMatC= 7.96D-06 BMatP= 1.63D-04
 IDIUse=3 WtCom= 9.96D-01 WtEn= 3.54D-03
 Coeff-Com: -0.234D-02-0.157D-02-0.108D+00 0.111D+01
 Coeff-En:   0.000D+00 0.000D+00 0.000D+00 0.100D+01
 Coeff:     -0.233D-02-0.157D-02-0.108D+00 0.111D+01
 Gap=     0.374 Goal=   None    Shift=    0.000
 Gap=     0.319 Goal=   None    Shift=    0.000
 RMSDP=1.36D-04 MaxDP=1.19D-03 DE=-9.97D-05 OVMax= 2.65D-03

 Cycle   5  Pass 0  IDiag  1:
 E= -41.0069670120475     Delta-E=       -0.000005198372 Rises=F Damp=F
 DIIS: error= 9.79D-05 at cycle   5 NSaved=   5.
 NSaved= 5 IEnMin= 5 EnMin= -41.0069670120475     IErMin= 5 ErrMin= 9.79D-05
 ErrMax= 9.79D-05  0.00D+00 EMaxC= 1.00D-01 BMatC= 6.75D-07 BMatP= 7.96D-06
 IDIUse=1 WtCom= 1.00D+00 WtEn= 0.00D+00
 Coeff-Com: -0.854D-03 0.292D-02-0.598D-01 0.105D+00 0.953D+00
 Coeff:     -0.854D-03 0.292D-02-0.598D-01 0.105D+00 0.953D+00
 Gap=     0.374 Goal=   None    Shift=    0.000
 Gap=     0.319 Goal=   None    Shift=    0.000
 RMSDP=3.82D-05 MaxDP=4.43D-04 DE=-5.20D-06 OVMax= 2.81D-04

 Cycle   6  Pass 0  IDiag  1:
 E= -41.0069672882873     Delta-E=       -0.000000276240 Rises=F Damp=F
 DIIS: error= 1.57D-05 at cycle   6 NSaved=   6.
 NSaved= 6 IEnMin= 6 EnMin= -41.0069672882873     IErMin= 6 ErrMin= 1.57D-05
 ErrMax= 1.57D-05  0.00D+00 EMaxC= 1.00D-01 BMatC= 1.56D-08 BMatP= 6.75D-07
 IDIUse=1 WtCom= 1.00D+00 WtEn= 0.00D+00
 Coeff-Com:  0.396D-04 0.222D-04 0.314D-02-0.296D-01-0.213D-01 0.105D+01
 Coeff:      0.396D-04 0.222D-04 0.314D-02-0.296D-01-0.213D-01 0.105D+01
 Gap=     0.374 Goal=   None    Shift=    0.000
 Gap=     0.319 Goal=   None    Shift=    0.000
 RMSDP=5.28D-06 MaxDP=4.06D-05 DE=-2.76D-07 OVMax= 5.20D-05

 Initial convergence to 1.0D-05 achieved.  Increase integral accuracy.
 Cycle   7  Pass 1  IDiag  1:
 E= -41.0069661217009     Delta-E=        0.000001166586 Rises=F Damp=F
 DIIS: error= 4.62D-06 at cycle   1 NSaved=   1.
 NSaved= 1 IEnMin= 1 EnMin= -41.0069661217009     IErMin= 1 ErrMin= 4.62D-06
 ErrMax= 4.62D-06  0.00D+00 EMaxC= 1.00D-01 BMatC= 1.99D-09 BMatP= 1.99D-09
 IDIUse=1 WtCom= 1.00D+00 WtEn= 0.00D+00
 Coeff-Com:  0.100D+01
 Coeff:      0.100D+01
 Gap=     0.374 Goal=   None    Shift=    0.000
 Gap=     0.319 Goal=   None    Shift=    0.000
 RMSDP=5.28D-06 MaxDP=4.06D-05 DE= 1.17D-06 OVMax= 1.76D-05

 Cycle   8  Pass 1  IDiag  1:
 E= -41.0069661227239     Delta-E=       -0.000000001023 Rises=F Damp=F
 DIIS: error= 3.26D-06 at cycle   2 NSaved=   2.
 NSaved= 2 IEnMin= 2 EnMin= -41.0069661227239     IErMin= 2 ErrMin= 3.26D-06
 ErrMax= 3.26D-06  0.00D+00 EMaxC= 1.00D-01 BMatC= 5.86D-10 BMatP= 1.99D-09
 IDIUse=1 WtCom= 1.00D+00 WtEn= 0.00D+00
 Coeff-Com:  0.246D+00 0.754D+00
 Coeff:      0.246D+00 0.754D+00
 Gap=     0.374 Goal=   None    Shift=    0.000
 Gap=     0.319 Goal=   None    Shift=    0.000
 RMSDP=6.91D-07 MaxDP=5.77D-06 DE=-1.02D-09 OVMax= 1.15D-05

 Cycle   9  Pass 1  IDiag  1:
 E= -41.0069661229267     Delta-E=       -0.000000000203 Rises=F Damp=F
 DIIS: error= 2.14D-06 at cycle   3 NSaved=   3.
 NSaved= 3 IEnMin= 3 EnMin= -41.0069661229267     IErMin= 3 ErrMin= 2.14D-06
 ErrMax= 2.14D-06  0.00D+00 EMaxC= 1.00D-01 BMatC= 1.96D-10 BMatP= 5.86D-10
 IDIUse=1 WtCom= 1.00D+00 WtEn= 0.00D+00
 Coeff-Com: -0.124D+00 0.277D+00 0.847D+00
 Coeff:     -0.124D+00 0.277D+00 0.847D+00
 Gap=     0.374 Goal=   None    Shift=    0.000
 Gap=     0.319 Goal=   None    Shift=    0.000
 RMSDP=4.81D-07 MaxDP=4.21D-06 DE=-2.03D-10 OVMax= 5.44D-06

 Cycle  10  Pass 1  IDiag  1:
 E= -41.0069661230037     Delta-E=       -0.000000000077 Rises=F Damp=F
 DIIS: error= 7.58D-07 at cycle   4 NSaved=   4.
 NSaved= 4 IEnMin= 4 EnMin= -41.0069661230037     IErMin= 4 ErrMin= 7.58D-07
 ErrMax= 7.58D-07  0.00D+00 EMaxC= 1.00D-01 BMatC= 3.02D-11 BMatP= 1.96D-10
 IDIUse=1 WtCom= 1.00D+00 WtEn= 0.00D+00
 Coeff-Com: -0.113D+00-0.611D-01 0.329D+00 0.845D+00
 Coeff:     -0.113D+00-0.611D-01 0.329D+00 0.845D+00
 Gap=     0.374 Goal=   None    Shift=    0.000
 Gap=     0.319 Goal=   None    Shift=    0.000
 RMSDP=1.91D-07 MaxDP=1.68D-06 DE=-7.70D-11 OVMax= 2.41D-06

 Cycle  11  Pass 1  IDiag  1:
 E= -41.0069661230166     Delta-E=       -0.000000000013 Rises=F Damp=F
 DIIS: error= 4.21D-08 at cycle   5 NSaved=   5.
 NSaved= 5 IEnMin= 5 EnMin= -41.0069661230166     IErMin= 5 ErrMin= 4.21D-08
 ErrMax= 4.21D-08  0.00D+00 EMaxC= 1.00D-01 BMatC= 1.29D-13 BMatP= 3.02D-11
 IDIUse=1 WtCom= 1.00D+00 WtEn= 0.00D+00
 Coeff-Com: -0.342D-02-0.643D-02-0.499D-02 0.421D-01 0.973D+00
 Coeff:     -0.342D-02-0.643D-02-0.499D-02 0.421D-01 0.973D+00
 Gap=     0.374 Goal=   None    Shift=    0.000
 Gap=     0.319 Goal=   None    Shift=    0.000
 RMSDP=1.52D-08 MaxDP=1.34D-07 DE=-1.28D-11 OVMax= 1.83D-07

 Cycle  12  Pass 1  IDiag  1:
 E= -41.0069661230166     Delta-E=       -0.000000000000 Rises=F Damp=F
 DIIS: error= 9.48D-09 at cycle   6 NSaved=   6.
 NSaved= 6 IEnMin= 6 EnMin= -41.0069661230166     IErMin= 6 ErrMin= 9.48D-09
 ErrMax= 9.48D-09  0.00D+00 EMaxC= 1.00D-01 BMatC= 6.83D-15 BMatP= 1.29D-13
 IDIUse=1 WtCom= 1.00D+00 WtEn= 0.00D+00
 Coeff-Com:  0.596D-02 0.270D-02-0.139D-01-0.453D-01-0.457D-01 0.110D+01
 Coeff:      0.596D-02 0.270D-02-0.139D-01-0.453D-01-0.457D-01 0.110D+01
 Gap=     0.374 Goal=   None    Shift=    0.000
 Gap=     0.319 Goal=   None    Shift=    0.000
 RMSDP=4.47D-09 MaxDP=4.66D-08 DE=-5.68D-14 OVMax= 3.47D-08

 SCF Done:  E(UB3LYP) =  -41.0069661230     A.U. after   12 cycles
            NFock= 12  Conv=0.45D-08     -V/T= 2.0080
 <Sx>= 0.0000 <Sy>= 0.0000 <Sz>= 0.5000 <S**2>= 0.7527 S= 0.5014
 <L.S>= 0.000000000000E+00
 KE= 4.068086388937D+01 PE=-1.256618358124D+02 EE= 2.814353158560D+01
 Annihilation of the first spin contaminant:
 S**2 before annihilation     0.7527,   after     0.7500
 Leave Link  502 at Fri Aug 23 16:08:22 2019, MaxMem=  2684354560 cpu:         4.3
 (Enter /soft/gaussian/09-e.01/g09/l508.exe)
 QCSCF skips out because SCF is already converged.
 Leave Link  508 at Fri Aug 23 16:08:22 2019, MaxMem=  2684354560 cpu:         0.0
 (Enter /soft/gaussian/09-e.01/g09/l601.exe)
 Copying SCF densities to generalized density rwf, IOpCl= 1 IROHF=0.

 **********************************************************************

            Population analysis using the SCF density.

 **********************************************************************

 Orbital symmetries:
 Alpha Orbitals:
       Occupied  (A') (A') (A') (A') (A") (A')
       Virtual   (A') (A') (A") (A') (A') (A") (A') (A') (A') (A")
                 (A') (A') (A') (A") (A') (A') (A") (A') (A')
 Beta  Orbitals:
       Occupied  (A') (A') (A') (A") (A')
       Virtual   (A') (A') (A') (A") (A') (A") (A') (A') (A') (A")
                 (A') (A') (A') (A') (A") (A') (A") (A') (A') (A')
 The electronic state is 2-A'.
 Alpha  occ. eigenvalues --  -10.17629  -0.71077  -0.45625  -0.39963  -0.39959
 Alpha  occ. eigenvalues --   -0.24982
 Alpha virt. eigenvalues --    0.12449   0.16811   0.16826   0.25842   0.52385
 Alpha virt. eigenvalues --    0.52408   0.53996   0.73019   0.88829   0.88842
 Alpha virt. eigenvalues --    0.94262   0.96902   1.23248   1.63868   1.63908
 Alpha virt. eigenvalues --    2.23106   2.23109   2.23174   4.20491
  Beta  occ. eigenvalues --  -10.17147  -0.69846  -0.42045  -0.39655  -0.39650
  Beta virt. eigenvalues --   -0.07746   0.12784   0.17114   0.17124   0.28073
  Beta virt. eigenvalues --    0.52484   0.52488   0.55717   0.84412   0.89246
  Beta virt. eigenvalues --    0.89262   0.95545   0.97514   1.24829   1.65211
  Beta virt. eigenvalues --    1.65236   2.23911   2.23930   2.24805   4.21446
          Condensed to atoms (all electrons):
               1          2          3          4          5          6
     1  C    5.196801   0.377378   0.379918   0.379918   0.336195  -0.108114
     2  H    0.377378   0.530860  -0.025119  -0.025119  -0.026312   0.003232
     3  H    0.379918  -0.025119   0.530633  -0.025171  -0.028769   0.003237
     4  H    0.379918  -0.025119  -0.025171   0.530633  -0.028769   0.003237
     5  H    0.336195  -0.026312  -0.028769  -0.028769   0.611717   0.050467
     6  H   -0.108114   0.003232   0.003237   0.003237   0.050467   1.066935
          Atomic-Atomic Spin Densities.
               1          2          3          4          5          6
     1  C    0.370154  -0.014591  -0.013423  -0.013423   0.041011  -0.127674
     2  H   -0.014591   0.000788   0.002630   0.002630   0.001213   0.004870
     3  H   -0.013423   0.002630  -0.002018   0.002398   0.001560   0.004783
     4  H   -0.013423   0.002630   0.002398  -0.002018   0.001560   0.004783
     5  H    0.041011   0.001213   0.001560   0.001560  -0.091771  -0.038431
     6  H   -0.127674   0.004870   0.004783   0.004783  -0.038431   1.005077
 Mulliken charges and spin densities:
               1          2
     1  C   -0.562098   0.242053
     2  H    0.165080  -0.002461
     3  H    0.165271  -0.004071
     4  H    0.165271  -0.004071
     5  H    0.085471  -0.084859
     6  H   -0.018994   0.853408
 Sum of Mulliken charges =  -0.00000   1.00000
 Mulliken charges and spin densities with hydrogens summed into heavy atoms:
               1          2
     1  C   -0.000000   1.000000
 Electronic spatial extent (au):  <R**2>=             55.6699
 Charge=             -0.0000 electrons
 Dipole moment (field-independent basis, Debye):
    X=             -0.0046    Y=              0.5595    Z=             -0.0000  Tot=              0.5595
 Quadrupole moment (field-independent basis, Debye-Ang):
   XX=             -9.4112   YY=            -10.8611   ZZ=             -9.4112
   XY=              0.0074   XZ=              0.0000   YZ=             -0.0000
 Traceless Quadrupole moment (field-independent basis, Debye-Ang):
   XX=              0.4833   YY=             -0.9666   ZZ=              0.4833
   XY=              0.0074   XZ=              0.0000   YZ=             -0.0000
 Octapole moment (field-independent basis, Debye-Ang**2):
  XXX=              0.5197  YYY=              5.7485  ZZZ=              0.0000  XYY=              0.0516
  XXY=              1.4396  XXZ=              0.0000  XZZ=             -0.5949  YZZ=              1.3902
  YYZ=              0.0000  XYZ=              0.0000
 Hexadecapole moment (field-independent basis, Debye-Ang**3):
 XXXX=            -16.2511 YYYY=            -60.4144 ZZZZ=            -16.1885 XXXY=              0.4647
 XXXZ=             -0.0000 YYYX=              0.0387 YYYZ=             -0.0000 ZZZX=              0.0000
 ZZZY=             -0.0000 XXYY=            -11.4686 XXZZ=             -5.3674 YYZZ=            -11.5476
 XXYZ=             -0.0000 YYXZ=              0.0000 ZZXY=             -0.4371
 N-N= 1.583047421437D+01 E-N=-1.256618356894D+02  KE= 4.068086388937D+01
 Symmetry A'   KE= 3.874641442038D+01
 Symmetry A"   KE= 1.934449468995D+00
                          Isotropic Fermi Contact Couplings
        Atom                 a.u.       MegaHertz       Gauss      10(-4) cm-1
     1  C(13)              0.13086     147.10606      52.49110      49.06930
     2  H(1)              -0.00125      -5.58276      -1.99207      -1.86221
     3  H(1)              -0.00197      -8.80899      -3.14327      -2.93836
     4  H(1)              -0.00197      -8.80899      -3.14327      -2.93836
     5  H(1)              -0.01160     -51.84057     -18.49800     -17.29215
     6  H(1)               0.27437    1226.40218     437.61078     409.08373
 --------------------------------------------------------
       Center         ----  Spin Dipole Couplings  ----
                      3XX-RR        3YY-RR        3ZZ-RR
 --------------------------------------------------------
     1   Atom       -0.152755      0.305394     -0.152639
     2   Atom        0.012559      0.007456     -0.020015
     3   Atom       -0.011314      0.006738      0.004576
     4   Atom       -0.011314      0.006738      0.004576
     5   Atom       -0.093692      0.187661     -0.093970
     6   Atom        0.008548     -0.017144      0.008596
 --------------------------------------------------------
                        XY            XZ            YZ
 --------------------------------------------------------
     1   Atom       -0.015005     -0.000000      0.000000
     2   Atom        0.014438     -0.000000      0.000000
     3   Atom       -0.007713     -0.014872      0.012169
     4   Atom       -0.007713      0.014872     -0.012169
     5   Atom        0.000207     -0.000000      0.000000
     6   Atom       -0.000961     -0.000000      0.000000
 --------------------------------------------------------


 ---------------------------------------------------------------------------------
              Anisotropic Spin Dipole Couplings in Principal Axis System
 ---------------------------------------------------------------------------------

       Atom             a.u.   MegaHertz   Gauss  10(-4) cm-1        Axes

              Baa    -0.1532   -20.564    -7.338    -6.859  0.9995  0.0327  0.0000
     1 C(13)  Bbb    -0.1526   -20.483    -7.309    -6.832 -0.0000 -0.0000  1.0000
              Bcc     0.3059    41.047    14.647    13.692 -0.0327  0.9995  0.0000
 
              Baa    -0.0200   -10.679    -3.811    -3.562  0.0000 -0.0000  1.0000
     2 H(1)   Bbb    -0.0047    -2.483    -0.886    -0.828 -0.6426  0.7662  0.0000
              Bcc     0.0247    13.162     4.697     4.390  0.7662  0.6426  0.0000
 
              Baa    -0.0202   -10.797    -3.853    -3.602  0.8613  0.0171  0.5078
     3 H(1)   Bbb    -0.0047    -2.494    -0.890    -0.832  0.3040  0.7835 -0.5420
              Bcc     0.0249    13.291     4.743     4.433 -0.4072  0.6212  0.6696
 
              Baa    -0.0202   -10.797    -3.853    -3.602  0.8613  0.0171 -0.5078
     4 H(1)   Bbb    -0.0047    -2.494    -0.890    -0.832  0.3040  0.7835  0.5420
              Bcc     0.0249    13.291     4.743     4.433  0.4072 -0.6212  0.6696
 
              Baa    -0.0940   -50.138   -17.890   -16.724  0.0000 -0.0000  1.0000
     5 H(1)   Bbb    -0.0937   -49.989   -17.837   -16.675  1.0000 -0.0007 -0.0000
              Bcc     0.1877   100.127    35.728    33.399  0.0007  1.0000  0.0000
 
              Baa    -0.0172    -9.166    -3.271    -3.058  0.0373  0.9993 -0.0000
     6 H(1)   Bbb     0.0086     4.580     1.634     1.528  0.9993 -0.0373  0.0000
              Bcc     0.0086     4.586     1.637     1.530 -0.0000  0.0000  1.0000
 

 ---------------------------------------------------------------------------------

 No NMR shielding tensors so no spin-rotation constants.
 Leave Link  601 at Fri Aug 23 16:08:23 2019, MaxMem=  2684354560 cpu:         3.1
 (Enter /soft/gaussian/09-e.01/g09/l701.exe)
 Compute integral first derivatives.
 ... and contract with generalized density number  0.
 Leave Link  701 at Fri Aug 23 16:08:23 2019, MaxMem=  2684354560 cpu:         1.6
 (Enter /soft/gaussian/09-e.01/g09/l702.exe)
 L702 exits ... SP integral derivatives will be done elsewhere.
 Leave Link  702 at Fri Aug 23 16:08:23 2019, MaxMem=  2684354560 cpu:         0.1
 (Enter /soft/gaussian/09-e.01/g09/l703.exe)
 Compute integral first derivatives, UseDBF=F ICtDFT=           0.
 Integral derivatives from FoFJK, PRISM(SPDF).
 Calling FoFJK, ICntrl=      2127 FMM=F ISym2X=1 I1Cent= 0 IOpClX= 1 NMat=1 NMatS=1 NMatT=0.
 FoFJK:  IHMeth= 1 ICntrl=    2127 DoSepK=F KAlg= 0 I1Cent=   0 FoldK=F
 IRaf=         0 NMat=   1 IRICut=       1 DoRegI=T DoRafI=F ISym2E= 1.
 FoFCou: FMM=F IPFlag=           0 FMFlag=      100000 FMFlg1=         800
         NFxFlg=           0 DoJE=F BraDBF=F KetDBF=F FulRan=T
         wScrn=  0.000000 ICntrl=    2127 IOpCl=  1 I1Cent=           0 NGrid=           0
         NMat0=    1 NMatS0=      1 NMatT0=    0 NMatD0=    1 NMtDS0=    0 NMtDT0=    0
 Petite list used in FoFCou.
 Leave Link  703 at Fri Aug 23 16:08:23 2019, MaxMem=  2684354560 cpu:         1.8
 (Enter /soft/gaussian/09-e.01/g09/l716.exe)
 Dipole        =-1.82234836D-03 2.20116548D-01-5.26628301D-16
 ***** Axes restored to original set *****
 -------------------------------------------------------------------
 Center     Atomic                   Forces (Hartrees/Bohr)
 Number     Number              X              Y              Z
 -------------------------------------------------------------------
      1        6           0.017419289   -0.030171094    0.013195791
      2        1          -0.001039991    0.001801318    0.000972473
      3        1           0.000385096    0.001889809   -0.001334815
      4        1          -0.001829171    0.000611401   -0.001334815
      5        1          -0.006060965    0.010497900   -0.004183425
      6        1          -0.008874258    0.015370666   -0.007315208
 -------------------------------------------------------------------
 Cartesian Forces:  Max     0.030171094 RMS     0.010373831
 -----------------------------------------------------------------------------------------------
                       Internal Coordinate Forces (Hartree/Bohr or radian)
  Cent   Atom   N1       Length/X         N2         Alpha/Y        N3         Beta/Z          J
 -----------------------------------------------------------------------------------------------
      1  C 
      2  H        1   0.000972(     1)
      3  H        1   0.000808(     2)      2   0.002333(     7)
      4  H        1   0.000808(     3)      2   0.002333(     8)      3   0.003677(    12)     0
      5  H        1   0.031995(     4)      2   0.000292(     9)      3   0.000000(    13)     0
         X        5  -0.000000(     5)      1   0.001533(    10)      2   0.000000(    14)     0
      6  H        5   0.019184(     6)      6   0.001533(    11)      1   0.000000(    15)     0
 -----------------------------------------------------------------------------------------------
 Internal  Forces:  Max     0.031995005 RMS     0.009740499
 Force constants in Cartesian coordinates: 
                1             2             3             4             5 
      1  0.825227D+00
      2  0.904475D-01  0.720787D+00
      3 -0.615639D-02  0.106632D-01  0.699040D+00
      4 -0.719808D-01  0.248364D-02  0.000000D+00  0.572310D-01
      5  0.248364D-02 -0.748487D-01  0.000000D+00  0.263014D-03  0.569273D-01
      6  0.000000D+00  0.000000D+00 -0.345595D+00  0.000000D+00  0.000000D+00
      7 -0.317375D+00 -0.106167D-02  0.844459D-01  0.125683D-01  0.000000D+00
      8 -0.295122D-02 -0.781215D-01 -0.330629D-03  0.000000D+00  0.436532D-03
      9  0.798174D-01 -0.300286D-02 -0.106746D+00  0.355484D-01  0.000000D+00
     10 -0.139673D+00 -0.105548D+00 -0.419366D-01  0.346946D-02  0.525319D-02
     11 -0.103658D+00 -0.255824D+00 -0.732976D-01  0.525319D-02  0.953533D-02
     12 -0.373082D-01 -0.706254D-01 -0.106746D+00 -0.177742D-01 -0.307858D-01
     13 -0.446314D+00 -0.701925D-01 -0.294979D-01 -0.589378D-02 -0.106591D-01
     14 -0.701925D-01 -0.365263D+00  0.510919D-01 -0.106591D-01  0.641425D-02
     15 -0.310277D-01  0.537415D-01 -0.170076D+00 -0.177742D-01  0.307858D-01
     16  0.150116D+00  0.838710D-01 -0.685498D-02  0.460589D-02  0.265921D-02
     17  0.838710D-01  0.532702D-01  0.118732D-01  0.265921D-02  0.153530D-02
     18 -0.532520D-02  0.922351D-02  0.301239D-01  0.000000D+00  0.000000D+00
                6             7             8             9            10 
      6  0.345595D+00
      7  0.000000D+00  0.313555D+00
      8  0.000000D+00  0.876712D-04  0.569273D-01
      9  0.000000D+00 -0.906241D-01  0.247972D-03  0.892715D-01
     10  0.000000D+00 -0.520040D-02 -0.272741D-01 -0.147089D-01  0.121160D+00
     11  0.000000D+00  0.175106D-02  0.953533D-02  0.495276D-02  0.111167D+00
     12  0.000000D+00  0.306526D-02  0.152147D-01  0.866986D-02  0.450973D-01
     13  0.000000D+00 -0.201183D-02  0.327969D-01 -0.569031D-02  0.233141D-01
     14  0.000000D+00  0.109340D-03  0.127576D-01  0.309261D-03  0.181749D-01
     15  0.000000D+00  0.311298D-02 -0.151320D-01  0.880484D-02  0.115482D-01
     16  0.000000D+00 -0.153530D-02 -0.265921D-02 -0.434248D-02 -0.307060D-02
     17  0.000000D+00 -0.886405D-03 -0.153530D-02 -0.250713D-02 -0.177281D-02
     18  0.000000D+00  0.000000D+00  0.000000D+00  0.000000D+00  0.000000D+00
               11            12            13            14            15 
     11  0.249322D+00
     12  0.786068D-01  0.892715D-01
     13 -0.145126D-01  0.257732D-02  0.746485D+00
     14 -0.125683D-01  0.508258D-02  0.182481D+00  0.535774D+00
     15 -0.102619D-01  0.880484D-02  0.432661D-01 -0.749391D-01  0.229947D+00
     16  0.000000D+00  0.434248D-02 -0.315579D+00 -0.119914D+00 -0.912545D-02
     17  0.000000D+00  0.250713D-02 -0.119914D+00 -0.177115D+00  0.158057D-01
     18  0.000000D+00  0.000000D+00 -0.106552D-01  0.184554D-01 -0.774803D-01
               16            17            18 
     16  0.165463D+00
     17  0.360427D-01  0.123845D+00
     18  0.159804D-01 -0.276789D-01  0.473565D-01
 Force constants in internal coordinates: 
                1             2             3             4             5 
      1  0.345595D+00
      2  0.000000D+00  0.345595D+00
      3  0.000000D+00  0.000000D+00  0.345595D+00
      4  0.000000D+00  0.000000D+00  0.000000D+00  0.345595D+00
      5  0.000000D+00  0.000000D+00  0.000000D+00  0.000000D+00  0.000000D+00
      6  0.000000D+00  0.000000D+00  0.000000D+00  0.000000D+00  0.000000D+00
      7  0.000000D+00  0.000000D+00  0.000000D+00  0.000000D+00  0.000000D+00
      8  0.000000D+00  0.000000D+00  0.000000D+00  0.000000D+00  0.000000D+00
      9  0.000000D+00  0.000000D+00  0.000000D+00  0.000000D+00  0.000000D+00
     10  0.000000D+00  0.000000D+00  0.000000D+00  0.000000D+00  0.000000D+00
     11  0.000000D+00  0.000000D+00  0.000000D+00  0.000000D+00  0.000000D+00
     12  0.000000D+00  0.000000D+00  0.000000D+00  0.000000D+00  0.000000D+00
     13  0.000000D+00  0.000000D+00  0.000000D+00  0.000000D+00  0.000000D+00
     14  0.000000D+00  0.000000D+00  0.000000D+00  0.000000D+00  0.000000D+00
     15  0.000000D+00  0.000000D+00  0.000000D+00  0.000000D+00  0.000000D+00
                6             7             8             9            10 
      6  0.117582D+00
      7  0.000000D+00  0.243800D+00
      8  0.000000D+00  0.415497D-01  0.243800D+00
      9  0.000000D+00  0.421965D-01  0.421965D-01  0.242291D+00
     10  0.000000D+00  0.000000D+00  0.000000D+00  0.000000D+00  0.160000D+00
     11  0.000000D+00  0.000000D+00  0.000000D+00  0.000000D+00  0.160000D+00
     12  0.000000D+00 -0.648136D-01 -0.105634D-02  0.644615D-01  0.000000D+00
     13  0.000000D+00  0.637573D-01 -0.637573D-01  0.000000D+00  0.000000D+00
     14  0.000000D+00 -0.211268D-02  0.211268D-02  0.000000D+00  0.000000D+00
     15  0.000000D+00 -0.241481D-01  0.241481D-01  0.000000D+00  0.000000D+00
               11            12            13            14            15 
     11  0.160000D+00
     12  0.000000D+00  0.215561D+00
     13  0.000000D+00 -0.108068D+00  0.216136D+00
     14  0.000000D+00 -0.115000D-02  0.230000D-02  0.690000D-02
     15  0.000000D+00 -0.131446D-01  0.262891D-01  0.788674D-01  0.901458D+00
 Leave Link  716 at Fri Aug 23 16:08:23 2019, MaxMem=  2684354560 cpu:         0.2
 (Enter /soft/gaussian/09-e.01/g09/l103.exe)

 GradGradGradGradGradGradGradGradGradGradGradGradGradGradGradGradGradGrad
 Berny optimization.
 Search for a local minimum.
 Step number   1 out of a maximum of   25
 All quantities printed in internal units (Hartrees-Bohrs-Radians)
 Second derivative matrix not updated -- first step.
 The second derivative matrix:
                          R1        R2        A2        R3        A3
           R1           0.34560
           R2          -0.00000   0.34560
           A2           0.00000  -0.00000   0.24380
           R3          -0.00000   0.00000  -0.00000   0.34560
           A3           0.00000   0.00000   0.04155  -0.00000   0.24380
           D3           0.00000  -0.00000  -0.06481  -0.00000  -0.00106
           R4           0.00000   0.00000   0.00000   0.00000  -0.00000
           A4          -0.00000  -0.00000   0.04220   0.00000   0.04220
           D4          -0.00000  -0.00000   0.06376  -0.00000  -0.06376
           D6           0.00000  -0.00000  -0.02415  -0.00000   0.02415
           A6          -0.00000  -0.00000   0.00000   0.00000  -0.00000
           R5          -0.00000   0.00000   0.00000  -0.00000   0.00000
           A5          -0.00000  -0.00000   0.00000   0.00000   0.00000
           D5           0.00000  -0.00000  -0.00211  -0.00000   0.00211
           R6           0.00000   0.00000   0.00000  -0.00000  -0.00000
                          D3        R4        A4        D4        D6
           D3           0.21556
           R4          -0.00000   0.34560
           A4           0.06446   0.00000   0.24229
           D4          -0.10807  -0.00000  -0.00000   0.21614
           D6          -0.01314   0.00000   0.00000   0.02629   0.90146
           A6          -0.00000  -0.00000   0.00000   0.00000  -0.00000
           R5           0.00000   0.00000   0.00000   0.00000  -0.00000
           A5           0.00000  -0.00000  -0.00000   0.00000  -0.00000
           D5          -0.00115   0.00000   0.00000   0.00230   0.07887
           R6          -0.00000   0.00000   0.00000   0.00000   0.00000
                          A6        R5        A5        D5        R6
           A6           0.16000
           R5           0.00000   0.00000
           A5           0.16000   0.00000   0.16000
           D5          -0.00000   0.00000  -0.00000   0.00690
           R6          -0.00000   0.00000  -0.00000  -0.00000   0.11758
 ITU=  0
     Eigenvalues ---    0.07436   0.13417   0.16000   0.23378   0.32726
     Eigenvalues ---    0.34560   0.34560   0.34560   0.34560   0.38934
     Eigenvalues ---    0.904151000.000001000.000001000.000001000.00000
 RFO step:  Lambda=-3.13448453D-03 EMin= 7.43553518D-02
 Linear search not attempted -- first point.
 Variable       Old X    -DE/DX   Delta X   Delta X   Delta X     New X
                                 (Linear)    (Quad)   (Total)
    R1        2.06396   0.00097   0.00000   0.00279   0.00279   2.06675
    R2        2.06396   0.00081   0.00000   0.00232   0.00232   2.06628
    A2        1.91063   0.00233   0.00000   0.01360   0.01360   1.92424
    R3        2.06396   0.00081   0.00000   0.00232   0.00232   2.06628
    A3        1.91063   0.00233   0.00000   0.01342   0.01342   1.92406
    D3        2.09440   0.00368   0.00000   0.03226   0.03226   2.12665
    R4        2.06396   0.03200   0.00000   0.09175   0.09175   2.15571
    A4        1.91063   0.00029   0.00000  -0.01193  -0.01193   1.89871
    D4        4.18879   0.00000   0.00000   0.01584   0.01584   4.20463
    D6        3.14159   0.00000   0.00000   0.00001   0.00001   3.14161
    A6        1.48353   0.00153   0.00000   0.00939   0.00939   1.49292
    R5        1.88973  -0.00000   0.00000   0.00000   0.00000   1.88973
    A5        1.57080   0.00153   0.00000   0.00000   0.00000   1.57080
    D5        3.14159   0.00000   0.00000   0.00000   0.00000   3.14159
    R6        2.20828   0.01918   0.00000   0.00000   0.00000   2.20828
         Item               Value     Threshold  Converged?
 Maximum Force            0.031995     0.000450     NO 
 RMS     Force            0.009783     0.000300     NO 
 Maximum Displacement     0.091747     0.001800     NO 
 RMS     Displacement     0.026234     0.001200     NO 
 Predicted change in Energy=-1.583420D-03
 Lowest energy point so far.  Saving SCF results.
 GradGradGradGradGradGradGradGradGradGradGradGradGradGradGradGradGradGrad

 Leave Link  103 at Fri Aug 23 16:08:23 2019, MaxMem=  2684354560 cpu:         0.1
 (Enter /soft/gaussian/09-e.01/g09/l202.exe)
 ---------------------------------------------------------------------------------------------------
                            Z-MATRIX (ANGSTROMS AND DEGREES)
   CD    Cent   Atom    N1       Length/X        N2       Alpha/Y        N3        Beta/Z          J
 ---------------------------------------------------------------------------------------------------
      1      1  C 
      2      2  H        1   1.093677(     1)
      3      3  H        1   1.093427(     2)      2  110.251(     7)
      4      4  H        1   1.093427(     3)      2  110.240(     8)      3  121.848(    12)      0
      5      5  H        1   1.140752(     4)      2  108.788(     9)      3  240.908(    13)      0
      6         X        5   1.000000(     5)      1   90.000(    10)      2  180.000(    14)      0
      7      6  H        5   1.168571(     6)      6   85.538(    11)      1  180.001(    15)      0
 ---------------------------------------------------------------------------------------------------
                         Z-Matrix orientation:                         
 ---------------------------------------------------------------------
 Center     Atomic      Atomic             Coordinates (Angstroms)
 Number     Number       Type             X           Y           Z
 ---------------------------------------------------------------------
      1          6           0        0.000000    0.000000    0.000000
      2          1           0        0.000000    0.000000    1.093677
      3          1           0        1.025840    0.000000   -0.378464
      4          1           0       -0.541341   -0.871457   -0.378280
      5          1           0       -0.525099    0.943719   -0.367396
      6         -1           0       -0.368506    0.662287   -1.314113
      7          1           0       -1.047151    1.881931   -0.828674
 ---------------------------------------------------------------------
                    Distance matrix (angstroms):
                    1          2          3          4          5
     1  C    0.000000
     2  H    1.093677   0.000000
     3  H    1.093427   1.794309   0.000000
     4  H    1.093427   1.794197   1.793180   0.000000
     5  H    1.140752   1.816884   1.815527   1.815281   0.000000
     6  X    1.517008   2.524257   1.805066   1.805000   1.000000
     7  H    2.307573   2.886801   2.835780   2.835462   1.168571
                    6          7
     6  X    0.000000
     7  H    1.477750   0.000000
 Stoichiometry    CH5(2)
 Framework group  C1[X(CH5)]
 Deg. of freedom    12
 Full point group                 C1      NOp   1
 Omega: Change in point group or standard orientation.

 Old FWG=CS   [SG(C1H3),X(H2)]
 New FWG=C01  [X(C1H5)]
 RotChk:  IX=2 Diff= 1.98D+00
 Largest Abelian subgroup         C1      NOp   1
 Largest concise Abelian subgroup C1      NOp   1
                         Standard orientation:                         
 ---------------------------------------------------------------------
 Center     Atomic      Atomic             Coordinates (Angstroms)
 Number     Number       Type             X           Y           Z
 ---------------------------------------------------------------------
      1          6           0       -0.217806   -0.000093    0.000020
      2          1           0       -0.610422    1.019457    0.050014
      3          1           0       -0.547509   -0.575662    0.869272
      4          1           0       -0.547063   -0.487470   -0.921738
      5          1           0        0.922066    0.044640    0.002257
      6          1           0        2.089766   -0.000403    0.000077
 ---------------------------------------------------------------------
 Rotational constants (GHZ):    155.8262577     60.6818036     60.6630254
 Leave Link  202 at Fri Aug 23 16:08:23 2019, MaxMem=  2684354560 cpu:         0.1
 (Enter /soft/gaussian/09-e.01/g09/l301.exe)
 Standard basis: 6-31G(d) (6D, 7F)
 Ernie: Thresh=  0.10000D-02 Tol=  0.10000D-05 Strict=F.
 There are    25 symmetry adapted cartesian basis functions of A   symmetry.
 There are    25 symmetry adapted basis functions of A   symmetry.
    25 basis functions,    48 primitive gaussians,    25 cartesian basis functions
     6 alpha electrons        5 beta electrons
       nuclear repulsion energy        15.6384846836 Hartrees.
 IExCor=  402 DFT=T Ex+Corr=B3LYP ExCW=0 ScaHFX=  0.200000
 ScaDFX=  0.800000  0.720000  1.000000  0.810000 ScalE2=  1.000000  1.000000
 IRadAn=      5 IRanWt=     -1 IRanGd=            0 ICorTp=0 IEmpDi=  4
 NAtoms=    6 NActive=    6 NUniq=    6 SFac= 1.00D+00 NAtFMM=   60 NAOKFM=F Big=F
 Integral buffers will be    131072 words long.
 Raffenetti 2 integral format.
 Two-electron integral symmetry is turned on.
 Leave Link  301 at Fri Aug 23 16:08:23 2019, MaxMem=  2684354560 cpu:         0.5
 (Enter /soft/gaussian/09-e.01/g09/l302.exe)
 NPDir=0 NMtPBC=     1 NCelOv=     1 NCel=       1 NClECP=     1 NCelD=      1
         NCelK=      1 NCelE2=     1 NClLst=     1 CellRange=     0.0.
 One-electron integrals computed using PRISM.
 NBasis=    25 RedAO= T EigKep=  1.27D-02  NBF=    25
 NBsUse=    25 1.00D-06 EigRej= -1.00D+00 NBFU=    25
 Precomputing XC quadrature grid using
 IXCGrd= 4 IRadAn=           5 IRanWt=          -1 IRanGd=           0 AccXCQ= 0.00D+00.
 Generated NRdTot=       0 NPtTot=           0 NUsed=           0 NTot=          32
 NSgBfM=    25    25    25    25    25 MxSgAt=     6 MxSgA2=     6.
 Leave Link  302 at Fri Aug 23 16:08:24 2019, MaxMem=  2684354560 cpu:         1.6
 (Enter /soft/gaussian/09-e.01/g09/l303.exe)
 DipDrv:  MaxL=1.
 Leave Link  303 at Fri Aug 23 16:08:24 2019, MaxMem=  2684354560 cpu:         0.2
 (Enter /soft/gaussian/09-e.01/g09/l401.exe)
 Initial guess from the checkpoint file:  "/blues/gpfs/home/elliott/Packages/PACC/moldriver/rcdriver/rundir/RXN/CH3.H2/MDUSDFXREFXETQ/0_0/2_1/UHFFFAOYSA-N/CH4.H/HXBDELFRWIQQII/0_0/1_2/UHFFFAOYSA-N/2/ezvlpJU/SCANS/R6/03/RUN/OPTI/A00/Gau-41419.chk"
 B after Tr=     0.000000    0.000000    0.000000
         Rot=    0.707640   -0.017363    0.017397   -0.706146 Ang= -89.91 deg.
 Guess basis will be translated and rotated to current coordinates.
 JPrj=2 DoOrth=T DoCkMO=T.
 Initial guess <Sx>= 0.0000 <Sy>= 0.0000 <Sz>= 0.5000 <S**2>= 0.7530 S= 0.5015
 Generating alternative initial guess.
 ExpMin= 1.61D-01 ExpMax= 3.05D+03 ExpMxC= 4.57D+02 IAcc=2 IRadAn=         4 AccDes= 0.00D+00
 Harris functional with IExCor=  402 and IRadAn=       4 diagonalized for initial guess.
 HarFok:  IExCor=  402 AccDes= 0.00D+00 IRadAn=         4 IDoV= 1 UseB2=F ITyADJ=14
 ICtDFT=  3500011 ScaDFX=  1.000000  1.000000  1.000000  1.000000
 FoFCou: FMM=F IPFlag=           0 FMFlag=      100000 FMFlg1=           0
         NFxFlg=           0 DoJE=T BraDBF=F KetDBF=T FulRan=T
         wScrn=  0.000000 ICntrl=     500 IOpCl=  0 I1Cent=   200000004 NGrid=           0
         NMat0=    1 NMatS0=      1 NMatT0=    0 NMatD0=    1 NMtDS0=    0 NMtDT0=    0
 Petite list used in FoFCou.
 Harris En= -41.0136647334456    
 Leave Link  401 at Fri Aug 23 16:08:24 2019, MaxMem=  2684354560 cpu:         2.2
 (Enter /soft/gaussian/09-e.01/g09/l502.exe)
 UHF open shell SCF:
 Using DIIS extrapolation, IDIIS=  1040.
 Integral symmetry usage will be decided dynamically.
 Keep R1 and R2 ints in memory in canonical form, NReq=976418.
 IVT=        8268 IEndB=        8268 NGot=  2684354560 MDV=  2684240343
 LenX=  2684240343 LenY=  2684239277
 Requested convergence on RMS density matrix=1.00D-08 within  64 cycles.
 Requested convergence on MAX density matrix=1.00D-06.
 Requested convergence on             energy=1.00D-06.
 No special actions if energy rises.
 FoFCou: FMM=F IPFlag=           0 FMFlag=           0 FMFlg1=           0
         NFxFlg=           0 DoJE=F BraDBF=F KetDBF=F FulRan=T
         wScrn=  0.000000 ICntrl=     600 IOpCl=  0 I1Cent=           0 NGrid=           0
         NMat0=    1 NMatS0=    325 NMatT0=    0 NMatD0=    1 NMtDS0=    0 NMtDT0=    0
 Symmetry not used in FoFCou.
 Integral accuracy reduced to 1.0D-05 until final iterations.

 Cycle   1  Pass 0  IDiag  1:
 E= -41.0083757526137    
 DIIS: error= 3.60D-03 at cycle   1 NSaved=   1.
 NSaved= 1 IEnMin= 1 EnMin= -41.0083757526137     IErMin= 1 ErrMin= 3.60D-03
 ErrMax= 3.60D-03  0.00D+00 EMaxC= 1.00D-01 BMatC= 8.87D-04 BMatP= 8.87D-04
 IDIUse=3 WtCom= 9.64D-01 WtEn= 3.60D-02
 Coeff-Com:  0.100D+01
 Coeff-En:   0.100D+01
 Coeff:      0.100D+01
 Gap=     1.974 Goal=   None    Shift=    0.000
 Gap=     1.938 Goal=   None    Shift=    0.000
 GapD=    1.938 DampG=2.000 DampE=1.000 DampFc=2.0000 IDamp=-1.
 RMSDP=9.88D-04 MaxDP=1.02D-02              OVMax= 2.22D-02

 Cycle   2  Pass 0  IDiag  1:
 E= -41.0087328426913     Delta-E=       -0.000357090078 Rises=F Damp=F
 DIIS: error= 2.18D-03 at cycle   2 NSaved=   2.
 NSaved= 2 IEnMin= 2 EnMin= -41.0087328426913     IErMin= 2 ErrMin= 2.18D-03
 ErrMax= 2.18D-03  0.00D+00 EMaxC= 1.00D-01 BMatC= 3.34D-04 BMatP= 8.87D-04
 IDIUse=3 WtCom= 9.78D-01 WtEn= 2.18D-02
 Coeff-Com:  0.330D+00 0.670D+00
 Coeff-En:   0.000D+00 0.100D+01
 Coeff:      0.322D+00 0.678D+00
 Gap=     0.372 Goal=   None    Shift=    0.000
 Gap=     0.318 Goal=   None    Shift=    0.000
 RMSDP=6.05D-04 MaxDP=6.53D-03 DE=-3.57D-04 OVMax= 5.01D-03

 Cycle   3  Pass 0  IDiag  1:
 E= -41.0088018818195     Delta-E=       -0.000069039128 Rises=F Damp=F
 DIIS: error= 1.09D-03 at cycle   3 NSaved=   3.
 NSaved= 3 IEnMin= 3 EnMin= -41.0088018818195     IErMin= 3 ErrMin= 1.09D-03
 ErrMax= 1.09D-03  0.00D+00 EMaxC= 1.00D-01 BMatC= 8.52D-05 BMatP= 3.34D-04
 IDIUse=3 WtCom= 9.89D-01 WtEn= 1.09D-02
 Coeff-Com: -0.842D-02 0.327D+00 0.681D+00
 Coeff-En:   0.000D+00 0.165D+00 0.835D+00
 Coeff:     -0.832D-02 0.325D+00 0.683D+00
 Gap=     0.371 Goal=   None    Shift=    0.000
 Gap=     0.317 Goal=   None    Shift=    0.000
 RMSDP=1.58D-04 MaxDP=1.74D-03 DE=-6.90D-05 OVMax= 3.23D-03

 Cycle   4  Pass 0  IDiag  1:
 E= -41.0088257603015     Delta-E=       -0.000023878482 Rises=F Damp=F
 DIIS: error= 1.23D-04 at cycle   4 NSaved=   4.
 NSaved= 4 IEnMin= 4 EnMin= -41.0088257603015     IErMin= 4 ErrMin= 1.23D-04
 ErrMax= 1.23D-04  0.00D+00 EMaxC= 1.00D-01 BMatC= 1.12D-06 BMatP= 8.52D-05
 IDIUse=3 WtCom= 9.99D-01 WtEn= 1.23D-03
 Coeff-Com: -0.114D-01 0.787D-02 0.907D-01 0.913D+00
 Coeff-En:   0.000D+00 0.000D+00 0.000D+00 0.100D+01
 Coeff:     -0.114D-01 0.786D-02 0.906D-01 0.913D+00
 Gap=     0.371 Goal=   None    Shift=    0.000
 Gap=     0.317 Goal=   None    Shift=    0.000
 RMSDP=4.62D-05 MaxDP=4.95D-04 DE=-2.39D-05 OVMax= 5.17D-04

 Cycle   5  Pass 0  IDiag  1:
 E= -41.0088263340466     Delta-E=       -0.000000573745 Rises=F Damp=F
 DIIS: error= 4.69D-05 at cycle   5 NSaved=   5.
 NSaved= 5 IEnMin= 5 EnMin= -41.0088263340466     IErMin= 5 ErrMin= 4.69D-05
 ErrMax= 4.69D-05  0.00D+00 EMaxC= 1.00D-01 BMatC= 9.99D-08 BMatP= 1.12D-06
 IDIUse=1 WtCom= 1.00D+00 WtEn= 0.00D+00
 Coeff-Com:  0.286D-02-0.369D-01-0.697D-01-0.607D-01 0.116D+01
 Coeff:      0.286D-02-0.369D-01-0.697D-01-0.607D-01 0.116D+01
 Gap=     0.371 Goal=   None    Shift=    0.000
 Gap=     0.317 Goal=   None    Shift=    0.000
 RMSDP=2.25D-05 MaxDP=2.65D-04 DE=-5.74D-07 OVMax= 3.36D-04

 Cycle   6  Pass 0  IDiag  1:
 E= -41.0088264118600     Delta-E=       -0.000000077813 Rises=F Damp=F
 DIIS: error= 7.66D-06 at cycle   6 NSaved=   6.
 NSaved= 6 IEnMin= 6 EnMin= -41.0088264118600     IErMin= 6 ErrMin= 7.66D-06
 ErrMax= 7.66D-06  0.00D+00 EMaxC= 1.00D-01 BMatC= 4.12D-09 BMatP= 9.99D-08
 IDIUse=1 WtCom= 1.00D+00 WtEn= 0.00D+00
 Coeff-Com:  0.655D-03-0.197D-02-0.554D-02-0.609D-01 0.479D-01 0.102D+01
 Coeff:      0.655D-03-0.197D-02-0.554D-02-0.609D-01 0.479D-01 0.102D+01
 Gap=     0.371 Goal=   None    Shift=    0.000
 Gap=     0.317 Goal=   None    Shift=    0.000
 RMSDP=4.23D-06 MaxDP=4.58D-05 DE=-7.78D-08 OVMax= 3.93D-05

 Initial convergence to 1.0D-05 achieved.  Increase integral accuracy.
 Cycle   7  Pass 1  IDiag  1:
 E= -41.0088258768404     Delta-E=        0.000000535020 Rises=F Damp=F
 DIIS: error= 2.08D-06 at cycle   1 NSaved=   1.
 NSaved= 1 IEnMin= 1 EnMin= -41.0088258768404     IErMin= 1 ErrMin= 2.08D-06
 ErrMax= 2.08D-06  0.00D+00 EMaxC= 1.00D-01 BMatC= 2.42D-10 BMatP= 2.42D-10
 IDIUse=1 WtCom= 1.00D+00 WtEn= 0.00D+00
 Coeff-Com:  0.100D+01
 Coeff:      0.100D+01
 Gap=     0.371 Goal=   None    Shift=    0.000
 Gap=     0.317 Goal=   None    Shift=    0.000
 RMSDP=4.23D-06 MaxDP=4.58D-05 DE= 5.35D-07 OVMax= 7.80D-06

 Cycle   8  Pass 1  IDiag  1:
 E= -41.0088258769482     Delta-E=       -0.000000000108 Rises=F Damp=F
 DIIS: error= 1.69D-06 at cycle   2 NSaved=   2.
 NSaved= 2 IEnMin= 2 EnMin= -41.0088258769482     IErMin= 2 ErrMin= 1.69D-06
 ErrMax= 1.69D-06  0.00D+00 EMaxC= 1.00D-01 BMatC= 1.30D-10 BMatP= 2.42D-10
 IDIUse=1 WtCom= 1.00D+00 WtEn= 0.00D+00
 Coeff-Com:  0.377D+00 0.623D+00
 Coeff:      0.377D+00 0.623D+00
 Gap=     0.371 Goal=   None    Shift=    0.000
 Gap=     0.317 Goal=   None    Shift=    0.000
 RMSDP=2.75D-07 MaxDP=2.46D-06 DE=-1.08D-10 OVMax= 4.45D-06

 Cycle   9  Pass 1  IDiag  1:
 E= -41.0088258769854     Delta-E=       -0.000000000037 Rises=F Damp=F
 DIIS: error= 8.34D-07 at cycle   3 NSaved=   3.
 NSaved= 3 IEnMin= 3 EnMin= -41.0088258769854     IErMin= 3 ErrMin= 8.34D-07
 ErrMax= 8.34D-07  0.00D+00 EMaxC= 1.00D-01 BMatC= 2.75D-11 BMatP= 1.30D-10
 IDIUse=1 WtCom= 1.00D+00 WtEn= 0.00D+00
 Coeff-Com: -0.224D+00 0.227D+00 0.997D+00
 Coeff:     -0.224D+00 0.227D+00 0.997D+00
 Gap=     0.371 Goal=   None    Shift=    0.000
 Gap=     0.317 Goal=   None    Shift=    0.000
 RMSDP=1.81D-07 MaxDP=1.56D-06 DE=-3.72D-11 OVMax= 2.05D-06

 Cycle  10  Pass 1  IDiag  1:
 E= -41.0088258769968     Delta-E=       -0.000000000011 Rises=F Damp=F
 DIIS: error= 6.22D-08 at cycle   4 NSaved=   4.
 NSaved= 4 IEnMin= 4 EnMin= -41.0088258769968     IErMin= 4 ErrMin= 6.22D-08
 ErrMax= 6.22D-08  0.00D+00 EMaxC= 1.00D-01 BMatC= 4.89D-13 BMatP= 2.75D-11
 IDIUse=1 WtCom= 1.00D+00 WtEn= 0.00D+00
 Coeff-Com: -0.558D-01-0.133D-02 0.906D-01 0.967D+00
 Coeff:     -0.558D-01-0.133D-02 0.906D-01 0.967D+00
 Gap=     0.371 Goal=   None    Shift=    0.000
 Gap=     0.317 Goal=   None    Shift=    0.000
 RMSDP=3.80D-08 MaxDP=2.42D-07 DE=-1.14D-11 OVMax= 3.54D-07

 Cycle  11  Pass 1  IDiag  1:
 E= -41.0088258769971     Delta-E=       -0.000000000000 Rises=F Damp=F
 DIIS: error= 1.72D-08 at cycle   5 NSaved=   5.
 NSaved= 5 IEnMin= 5 EnMin= -41.0088258769971     IErMin= 5 ErrMin= 1.72D-08
 ErrMax= 1.72D-08  0.00D+00 EMaxC= 1.00D-01 BMatC= 2.43D-14 BMatP= 4.89D-13
 IDIUse=1 WtCom= 1.00D+00 WtEn= 0.00D+00
 Coeff-Com:  0.716D-02-0.132D-01-0.366D-01 0.639D-01 0.979D+00
 Coeff:      0.716D-02-0.132D-01-0.366D-01 0.639D-01 0.979D+00
 Gap=     0.371 Goal=   None    Shift=    0.000
 Gap=     0.317 Goal=   None    Shift=    0.000
 RMSDP=8.72D-09 MaxDP=9.17D-08 DE=-3.13D-13 OVMax= 8.03D-08

 SCF Done:  E(UB3LYP) =  -41.0088258770     A.U. after   11 cycles
            NFock= 11  Conv=0.87D-08     -V/T= 2.0097
 <Sx>= 0.0000 <Sy>= 0.0000 <Sz>= 0.5000 <S**2>= 0.7535 S= 0.5017
 <L.S>= 0.000000000000E+00
 KE= 4.061590307561D+01 PE=-1.252371773778D+02 EE= 2.797396374165D+01
 Annihilation of the first spin contaminant:
 S**2 before annihilation     0.7535,   after     0.7500
 Leave Link  502 at Fri Aug 23 16:08:24 2019, MaxMem=  2684354560 cpu:         5.8
 (Enter /soft/gaussian/09-e.01/g09/l508.exe)
 QCSCF skips out because SCF is already converged.
 Leave Link  508 at Fri Aug 23 16:08:24 2019, MaxMem=  2684354560 cpu:         0.0
 (Enter /soft/gaussian/09-e.01/g09/l701.exe)
 Compute integral first derivatives.
 ... and contract with generalized density number  0.
 Leave Link  701 at Fri Aug 23 16:08:25 2019, MaxMem=  2684354560 cpu:         1.6
 (Enter /soft/gaussian/09-e.01/g09/l702.exe)
 L702 exits ... SP integral derivatives will be done elsewhere.
 Leave Link  702 at Fri Aug 23 16:08:25 2019, MaxMem=  2684354560 cpu:         0.1
 (Enter /soft/gaussian/09-e.01/g09/l703.exe)
 Compute integral first derivatives, UseDBF=F ICtDFT=           0.
 Integral derivatives from FoFJK, PRISM(SPDF).
 Calling FoFJK, ICntrl=      2127 FMM=F ISym2X=0 I1Cent= 0 IOpClX= 1 NMat=1 NMatS=1 NMatT=0.
 FoFJK:  IHMeth= 1 ICntrl=    2127 DoSepK=F KAlg= 0 I1Cent=   0 FoldK=F
 IRaf=         0 NMat=   1 IRICut=       1 DoRegI=T DoRafI=F ISym2E= 0.
 FoFCou: FMM=F IPFlag=           0 FMFlag=      100000 FMFlg1=         800
         NFxFlg=           0 DoJE=F BraDBF=F KetDBF=F FulRan=T
         wScrn=  0.000000 ICntrl=    2127 IOpCl=  1 I1Cent=           0 NGrid=           0
         NMat0=    1 NMatS0=      1 NMatT0=    0 NMatD0=    1 NMtDS0=    0 NMtDT0=    0
 Symmetry not used in FoFCou.
 Leave Link  703 at Fri Aug 23 16:08:25 2019, MaxMem=  2684354560 cpu:         2.3
 (Enter /soft/gaussian/09-e.01/g09/l716.exe)
 Dipole        =-2.27444460D-01-2.47972873D-03-1.78259105D-04
 ***** Axes restored to original set *****
 -------------------------------------------------------------------
 Center     Atomic                   Forces (Hartrees/Bohr)
 Number     Number              X              Y              Z
 -------------------------------------------------------------------
      1        6           0.004894977   -0.008858519    0.004119484
      2        1          -0.000686100    0.001252494   -0.000483300
      3        1          -0.000619541    0.001317301   -0.000488599
      4        1          -0.000780644    0.001205190   -0.000491361
      5        1           0.003663172   -0.006546983    0.002394819
      6        1          -0.006471863    0.011630517   -0.005051043
 -------------------------------------------------------------------
 Cartesian Forces:  Max     0.011630517 RMS     0.004660844
 -----------------------------------------------------------------------------------------------
                       Internal Coordinate Forces (Hartree/Bohr or radian)
  Cent   Atom   N1       Length/X         N2         Alpha/Y        N3         Beta/Z          J
 -----------------------------------------------------------------------------------------------
      1  C 
      2  H        1  -0.000483(     1)
      3  H        1  -0.000412(     2)      2   0.001390(     7)
      4  H        1  -0.000404(     3)      2   0.001390(     8)      3   0.002518(    12)     0
      5  H        1   0.006354(     4)      2   0.000035(     9)      3   0.000035(    13)     0
         X        5  -0.000000(     5)      1   0.001354(    10)      2   0.000000(    14)     0
      6  H        5   0.014223(     6)      6   0.001354(    11)      1   0.000001(    15)     0
 -----------------------------------------------------------------------------------------------
 Internal  Forces:  Max     0.014222909 RMS     0.004140085
 Leave Link  716 at Fri Aug 23 16:08:25 2019, MaxMem=  2684354560 cpu:         0.2
 (Enter /soft/gaussian/09-e.01/g09/l103.exe)

 GradGradGradGradGradGradGradGradGradGradGradGradGradGradGradGradGradGrad
 Berny optimization.
 Search for a local minimum.
 Step number   2 out of a maximum of   25
 All quantities printed in internal units (Hartrees-Bohrs-Radians)
 Update second derivatives using D2CorN and points    1    2
 DE= -1.86D-03 DEPred=-1.58D-03 R= 1.17D+00
 TightC=F SS=  1.41D+00  RLast= 1.02D-01 DXNew= 5.0454D-01 3.0481D-01
 Trust test= 1.17D+00 RLast= 1.02D-01 DXMaxT set to 3.05D-01
 The second derivative matrix:
                          R1        R2        A2        R3        A3
           R1           0.34573
           R2           0.00011   0.34569
           A2           0.00014   0.00013   0.24202
           R3           0.00011   0.00009   0.00012   0.34569
           A3           0.00014   0.00012   0.03979   0.00012   0.24205
           D3           0.00044   0.00038  -0.06851   0.00037  -0.00473
           R4           0.00137   0.00118  -0.00998   0.00115  -0.00993
           A4          -0.00029  -0.00025   0.04293  -0.00025   0.04293
           D4           0.00038   0.00032   0.06273   0.00032  -0.06478
           D6           0.00000   0.00000  -0.02415   0.00000   0.02415
           A6           0.00005   0.00004  -0.00149   0.00004  -0.00147
           R5          -0.00000  -0.00000  -0.00000  -0.00000   0.00000
           A5          -0.00018  -0.00015  -0.00087  -0.00015  -0.00086
           D5          -0.00000  -0.00000  -0.00211  -0.00000   0.00211
           R6           0.00067   0.00056   0.00327   0.00056   0.00323
                          D3        R4        A4        D4        D6
           D3           0.20801
           R4          -0.02022   0.29168
           A4           0.06575   0.00318   0.24237
           D4          -0.10990  -0.00459  -0.00006   0.21616
           D6          -0.01315  -0.00001   0.00000   0.02629   0.90146
           A6          -0.00317  -0.00865   0.00073  -0.00101  -0.00000
           R5          -0.00000  -0.00000   0.00000  -0.00000  -0.00000
           A5          -0.00207  -0.00588   0.00077  -0.00102  -0.00000
           D5          -0.00115  -0.00000   0.00000   0.00230   0.07887
           R6           0.00775   0.02205  -0.00287   0.00381   0.00000
                          A6        R5        A5        D5        R6
           A6           0.15879
           R5           0.00000   0.00000
           A5           0.15940   0.00000   0.16000
           D5          -0.00000   0.00000  -0.00000   0.00690
           R6           0.00226   0.00000  -0.00000  -0.00000   0.11758
 ITU=  1  0
     Eigenvalues ---    0.06475   0.13187   0.15859   0.23378   0.29161
     Eigenvalues ---    0.32845   0.34560   0.34560   0.34601   0.38927
     Eigenvalues ---    0.904151000.000001000.000001000.000001000.00000
 RFO step:  Lambda=-1.36601957D-04 EMin= 6.47453700D-02
 Quartic linear search produced a step of  0.36901.
 Variable       Old X    -DE/DX   Delta X   Delta X   Delta X     New X
                                 (Linear)    (Quad)   (Total)
    R1        2.06675  -0.00048   0.00103  -0.00288  -0.00185   2.06490
    R2        2.06628  -0.00041   0.00086  -0.00243  -0.00158   2.06470
    A2        1.92424   0.00139   0.00502   0.00958   0.01460   1.93884
    R3        2.06628  -0.00040   0.00086  -0.00240  -0.00154   2.06473
    A3        1.92406   0.00139   0.00495   0.01105   0.01600   1.94006
    D3        2.12665   0.00252   0.01190   0.02911   0.04101   2.16766
    R4        2.15571   0.00635   0.03386  -0.00163   0.03223   2.18793
    A4        1.89871   0.00003  -0.00440  -0.01267  -0.01708   1.88163
    D4        4.20463   0.00003   0.00585   0.01687   0.02272   4.22735
    D6        3.14161   0.00000   0.00000  -0.00011  -0.00010   3.14150
    A6        1.49292   0.00135   0.00347   0.01000   0.01347   1.50639
    R5        1.88973  -0.00000   0.00000   0.00000   0.00000   1.88973
    A5        1.57080   0.00135   0.00000   0.00000   0.00000   1.57080
    D5        3.14159   0.00000   0.00000   0.00000   0.00000   3.14159
    R6        2.20828   0.01422   0.00000   0.00000   0.00000   2.20828
         Item               Value     Threshold  Converged?
 Maximum Force            0.006354     0.000450     NO 
 RMS     Force            0.002195     0.000300     NO 
 Maximum Displacement     0.041011     0.001800     NO 
 RMS     Displacement     0.016707     0.001200     NO 
 Predicted change in Energy=-1.380931D-04
 Lowest energy point so far.  Saving SCF results.
 GradGradGradGradGradGradGradGradGradGradGradGradGradGradGradGradGradGrad

 Leave Link  103 at Fri Aug 23 16:08:25 2019, MaxMem=  2684354560 cpu:         0.1
 (Enter /soft/gaussian/09-e.01/g09/l202.exe)
 ---------------------------------------------------------------------------------------------------
                            Z-MATRIX (ANGSTROMS AND DEGREES)
   CD    Cent   Atom    N1       Length/X        N2       Alpha/Y        N3        Beta/Z          J
 ---------------------------------------------------------------------------------------------------
      1      1  C 
      2      2  H        1   1.092699(     1)
      3      3  H        1   1.092592(     2)      2  111.087(     7)
      4      4  H        1   1.092610(     3)      2  111.157(     8)      3  124.198(    12)      0
      5      5  H        1   1.157805(     4)      2  107.809(     9)      3  242.209(    13)      0
      6         X        5   1.000000(     5)      1   90.000(    10)      2  180.000(    14)      0
      7      6  H        5   1.168571(     6)      6   86.310(    11)      1  179.995(    15)      0
 ---------------------------------------------------------------------------------------------------
                         Z-Matrix orientation:                         
 ---------------------------------------------------------------------
 Center     Atomic      Atomic             Coordinates (Angstroms)
 Number     Number       Type             X           Y           Z
 ---------------------------------------------------------------------
      1          6           0        0.000000    0.000000    0.000000
      2          1           0        0.000000    0.000000    1.092699
      3          1           0        1.019424    0.000000   -0.393104
      4          1           0       -0.572712   -0.842784   -0.394350
      5          1           0       -0.513948    0.975177   -0.354117
      6         -1           0       -0.371347    0.704602   -1.306196
      7          1           0       -1.020784    1.937079   -0.782391
 ---------------------------------------------------------------------
                    Distance matrix (angstroms):
                    1          2          3          4          5
     1  C    0.000000
     2  H    1.092699   0.000000
     3  H    1.092592   1.801898   0.000000
     4  H    1.092610   1.802665   1.801439   0.000000
     5  H    1.157805   1.818898   1.817614   1.819355   0.000000
     6  X    1.529873   2.527659   1.806778   1.807323   1.000000
     7  H    2.325169   2.882749   2.840118   2.842355   1.168571
                    6          7
     6  X    0.000000
     7  H    1.488335   0.000000
 Stoichiometry    CH5(2)
 Framework group  C1[X(CH5)]
 Deg. of freedom    12
 Full point group                 C1      NOp   1
 RotChk:  IX=0 Diff= 5.65D-01
 Largest Abelian subgroup         C1      NOp   1
 Largest concise Abelian subgroup C1      NOp   1
                         Standard orientation:                         
 ---------------------------------------------------------------------
 Center     Atomic      Atomic             Coordinates (Angstroms)
 Number     Number       Type             X           Y           Z
 ---------------------------------------------------------------------
      1          6           0       -0.225584   -0.000364   -0.000029
      2          1           0       -0.593152    0.968467   -0.346801
      3          1           0       -0.540696   -0.195390    1.027797
      4          1           0       -0.543849   -0.804767   -0.667442
      5          1           0        0.931618    0.034665   -0.012917
      6          1           0        2.099585   -0.000790   -0.000464
 ---------------------------------------------------------------------
 Rotational constants (GHZ):    154.4248897     60.1315075     60.1122179
 Leave Link  202 at Fri Aug 23 16:08:25 2019, MaxMem=  2684354560 cpu:         0.1
 (Enter /soft/gaussian/09-e.01/g09/l301.exe)
 Standard basis: 6-31G(d) (6D, 7F)
 Ernie: Thresh=  0.10000D-02 Tol=  0.10000D-05 Strict=F.
 There are    25 symmetry adapted cartesian basis functions of A   symmetry.
 There are    25 symmetry adapted basis functions of A   symmetry.
    25 basis functions,    48 primitive gaussians,    25 cartesian basis functions
     6 alpha electrons        5 beta electrons
       nuclear repulsion energy        15.5882964202 Hartrees.
 IExCor=  402 DFT=T Ex+Corr=B3LYP ExCW=0 ScaHFX=  0.200000
 ScaDFX=  0.800000  0.720000  1.000000  0.810000 ScalE2=  1.000000  1.000000
 IRadAn=      5 IRanWt=     -1 IRanGd=            0 ICorTp=0 IEmpDi=  4
 NAtoms=    6 NActive=    6 NUniq=    6 SFac= 1.00D+00 NAtFMM=   60 NAOKFM=F Big=F
 Integral buffers will be    131072 words long.
 Raffenetti 2 integral format.
 Two-electron integral symmetry is turned on.
 Leave Link  301 at Fri Aug 23 16:08:25 2019, MaxMem=  2684354560 cpu:         0.5
 (Enter /soft/gaussian/09-e.01/g09/l302.exe)
 NPDir=0 NMtPBC=     1 NCelOv=     1 NCel=       1 NClECP=     1 NCelD=      1
         NCelK=      1 NCelE2=     1 NClLst=     1 CellRange=     0.0.
 One-electron integrals computed using PRISM.
 NBasis=    25 RedAO= T EigKep=  1.30D-02  NBF=    25
 NBsUse=    25 1.00D-06 EigRej= -1.00D+00 NBFU=    25
 Precomputing XC quadrature grid using
 IXCGrd= 4 IRadAn=           5 IRanWt=          -1 IRanGd=           0 AccXCQ= 0.00D+00.
 Generated NRdTot=       0 NPtTot=           0 NUsed=           0 NTot=          32
 NSgBfM=    25    25    25    25    25 MxSgAt=     6 MxSgA2=     6.
 Leave Link  302 at Fri Aug 23 16:08:25 2019, MaxMem=  2684354560 cpu:         1.7
 (Enter /soft/gaussian/09-e.01/g09/l303.exe)
 DipDrv:  MaxL=1.
 Leave Link  303 at Fri Aug 23 16:08:25 2019, MaxMem=  2684354560 cpu:         0.2
 (Enter /soft/gaussian/09-e.01/g09/l401.exe)
 Initial guess from the checkpoint file:  "/blues/gpfs/home/elliott/Packages/PACC/moldriver/rcdriver/rundir/RXN/CH3.H2/MDUSDFXREFXETQ/0_0/2_1/UHFFFAOYSA-N/CH4.H/HXBDELFRWIQQII/0_0/1_2/UHFFFAOYSA-N/2/ezvlpJU/SCANS/R6/03/RUN/OPTI/A00/Gau-41419.chk"
 B after Tr=    -0.000000   -0.000000   -0.000000
         Rot=    0.980658    0.195720   -0.000164    0.001614 Ang=  22.57 deg.
 Guess basis will be translated and rotated to current coordinates.
 JPrj=2 DoOrth=T DoCkMO=T.
 Initial guess <Sx>= 0.0000 <Sy>= 0.0000 <Sz>= 0.5000 <S**2>= 0.7536 S= 0.5018
 Generating alternative initial guess.
 ExpMin= 1.61D-01 ExpMax= 3.05D+03 ExpMxC= 4.57D+02 IAcc=2 IRadAn=         4 AccDes= 0.00D+00
 Harris functional with IExCor=  402 and IRadAn=       4 diagonalized for initial guess.
 HarFok:  IExCor=  402 AccDes= 0.00D+00 IRadAn=         4 IDoV= 1 UseB2=F ITyADJ=14
 ICtDFT=  3500011 ScaDFX=  1.000000  1.000000  1.000000  1.000000
 FoFCou: FMM=F IPFlag=           0 FMFlag=      100000 FMFlg1=           0
         NFxFlg=           0 DoJE=T BraDBF=F KetDBF=T FulRan=T
         wScrn=  0.000000 ICntrl=     500 IOpCl=  0 I1Cent=   200000004 NGrid=           0
         NMat0=    1 NMatS0=      1 NMatT0=    0 NMatD0=    1 NMtDS0=    0 NMtDT0=    0
 Petite list used in FoFCou.
 Harris En= -41.0132382530768    
 Leave Link  401 at Fri Aug 23 16:08:26 2019, MaxMem=  2684354560 cpu:         2.0
 (Enter /soft/gaussian/09-e.01/g09/l502.exe)
 UHF open shell SCF:
 Using DIIS extrapolation, IDIIS=  1040.
 Integral symmetry usage will be decided dynamically.
 Keep R1 and R2 ints in memory in canonical form, NReq=976418.
 IVT=        8268 IEndB=        8268 NGot=  2684354560 MDV=  2684240343
 LenX=  2684240343 LenY=  2684239277
 Requested convergence on RMS density matrix=1.00D-08 within  64 cycles.
 Requested convergence on MAX density matrix=1.00D-06.
 Requested convergence on             energy=1.00D-06.
 No special actions if energy rises.
 FoFCou: FMM=F IPFlag=           0 FMFlag=           0 FMFlg1=           0
         NFxFlg=           0 DoJE=F BraDBF=F KetDBF=F FulRan=T
         wScrn=  0.000000 ICntrl=     600 IOpCl=  0 I1Cent=           0 NGrid=           0
         NMat0=    1 NMatS0=    325 NMatT0=    0 NMatD0=    1 NMtDS0=    0 NMtDT0=    0
 Symmetry not used in FoFCou.
 Integral accuracy reduced to 1.0D-05 until final iterations.

 Cycle   1  Pass 0  IDiag  1:
 E= -41.0089075193618    
 DIIS: error= 1.61D-03 at cycle   1 NSaved=   1.
 NSaved= 1 IEnMin= 1 EnMin= -41.0089075193618     IErMin= 1 ErrMin= 1.61D-03
 ErrMax= 1.61D-03  0.00D+00 EMaxC= 1.00D-01 BMatC= 1.98D-04 BMatP= 1.98D-04
 IDIUse=3 WtCom= 9.84D-01 WtEn= 1.61D-02
 Coeff-Com:  0.100D+01
 Coeff-En:   0.100D+01
 Coeff:      0.100D+01
 Gap=     2.004 Goal=   None    Shift=    0.000
 Gap=     2.009 Goal=   None    Shift=    0.000
 GapD=    2.004 DampG=2.000 DampE=1.000 DampFc=2.0000 IDamp=-1.
 RMSDP=4.50D-04 MaxDP=4.31D-03              OVMax= 9.96D-03

 Cycle   2  Pass 0  IDiag  1:
 E= -41.0090054248518     Delta-E=       -0.000097905490 Rises=F Damp=F
 DIIS: error= 6.41D-04 at cycle   2 NSaved=   2.
 NSaved= 2 IEnMin= 2 EnMin= -41.0090054248518     IErMin= 2 ErrMin= 6.41D-04
 ErrMax= 6.41D-04  0.00D+00 EMaxC= 1.00D-01 BMatC= 2.62D-05 BMatP= 1.98D-04
 IDIUse=3 WtCom= 9.94D-01 WtEn= 6.41D-03
 Coeff-Com:  0.129D+00 0.871D+00
 Coeff-En:   0.000D+00 0.100D+01
 Coeff:      0.128D+00 0.872D+00
 Gap=     0.369 Goal=   None    Shift=    0.000
 Gap=     0.319 Goal=   None    Shift=    0.000
 RMSDP=2.52D-04 MaxDP=2.90D-03 DE=-9.79D-05 OVMax= 2.30D-03

 Cycle   3  Pass 0  IDiag  1:
[...]
 Internal  Forces:  Max     0.012190590 RMS     0.003147860
 Leave Link  716 at Fri Aug 23 16:08:32 2019, MaxMem=  2684354560 cpu:         0.5
 (Enter /soft/gaussian/09-e.01/g09/l103.exe)

 GradGradGradGradGradGradGradGradGradGradGradGradGradGradGradGradGradGrad
 Berny optimization.
 Search for a local minimum.
 Step number   6 out of a maximum of   25
 All quantities printed in internal units (Hartrees-Bohrs-Radians)
 Update second derivatives using D2CorN and points    1    2    5    6
 DE= -1.14D-05 DEPred=-1.09D-05 R= 1.04D+00
 TightC=F SS=  1.41D+00  RLast= 3.43D-02 DXNew= 5.1263D-01 1.0297D-01
 Trust test= 1.04D+00 RLast= 3.43D-02 DXMaxT set to 3.05D-01
 The second derivative matrix:
                          R1        R2        A2        R3        A3
           R1           0.34586
           R2           0.00021   0.34576
           A2           0.00039   0.00031   0.24194
           R3           0.00037   0.00029   0.00033   0.34613
           A3           0.00073   0.00061   0.03900   0.00086   0.24097
           D3           0.00177   0.00148  -0.06896   0.00170  -0.00651
           R4           0.00340   0.00278  -0.01365   0.00308  -0.01503
           A4          -0.00087  -0.00071   0.04255  -0.00091   0.04279
           D4           0.00106   0.00087   0.06305   0.00118  -0.06488
           D6          -0.00003  -0.00003  -0.02409  -0.00004   0.02417
           A6           0.00167   0.00080   0.00042   0.00018   0.00121
           R5           0.00000   0.00000  -0.00000   0.00000   0.00000
           A5           0.00683   0.00646  -0.00985   0.00761  -0.00173
           D5          -0.00000  -0.00000  -0.00211  -0.00000   0.00211
           R6           0.00104   0.00088   0.00577   0.00091   0.00600
                          D3        R4        A4        D4        D6
           D3           0.20573
           R4          -0.02831   0.28001
           A4           0.06463   0.00410   0.24358
           D4          -0.10864  -0.00669  -0.00164   0.21790
           D6          -0.01302   0.00010  -0.00002   0.02632   0.90146
           A6          -0.00312  -0.00167   0.00317   0.00217   0.00004
           R5          -0.00000  -0.00000   0.00000  -0.00000  -0.00000
           A5          -0.02717  -0.01366   0.00482  -0.00077  -0.00054
           D5          -0.00115   0.00000  -0.00000   0.00230   0.07887
           R6           0.01406   0.03541  -0.00546   0.00740  -0.00002
                          A6        R5        A5        D5        R6
           A6           0.01728
           R5          -0.00000   0.00000
           A5           0.02938   0.00000   0.16000
           D5           0.00001   0.00000  -0.00000   0.00690
           R6           0.00089   0.00000  -0.00000  -0.00000   0.11758
 ITU=  1  1  1  1  1  0
     Eigenvalues ---    0.01707   0.06372   0.13172   0.23381   0.27994
     Eigenvalues ---    0.32912   0.34559   0.34562   0.34702   0.38884
     Eigenvalues ---    0.904151000.000001000.000001000.000001000.00000
 RFO step:  Lambda=-7.47228418D-08 EMin= 1.70674117D-02
 Quartic linear search produced a step of  0.05189.
 Variable       Old X    -DE/DX   Delta X   Delta X   Delta X     New X
                                 (Linear)    (Quad)   (Total)
    R1        2.06410   0.00001  -0.00001   0.00004   0.00004   2.06413
    R2        2.06403   0.00003   0.00000   0.00008   0.00008   2.06412
    A2        1.93926  -0.00001  -0.00001  -0.00021  -0.00023   1.93903
    R3        2.06419  -0.00001   0.00000  -0.00002  -0.00002   2.06417
    A3        1.93889  -0.00002  -0.00003   0.00005   0.00003   1.93892
    D3        2.16840  -0.00010  -0.00005  -0.00038  -0.00044   2.16797
    R4        2.18738   0.00000  -0.00003  -0.00001  -0.00004   2.18734
    A4        1.88156  -0.00006  -0.00001  -0.00009  -0.00010   1.88145
    D4        4.22511   0.00009  -0.00004   0.00030   0.00025   4.22537
    D6        3.14161   0.00000   0.00000  -0.00002  -0.00002   3.14159
    A6        1.56904   0.00003   0.00178  -0.00017   0.00161   1.57065
    R5        1.88973   0.00000   0.00000   0.00000   0.00000   1.88973
    A5        1.57080   0.00003   0.00000   0.00000   0.00000   1.57080
    D5        3.14159   0.00000   0.00000   0.00000   0.00000   3.14159
    R6        2.20828   0.01219   0.00000   0.00000   0.00000   2.20828
         Item               Value     Threshold  Converged?
 Maximum Force            0.000105     0.000450     YES
 RMS     Force            0.000047     0.000300     YES
 Maximum Displacement     0.001606     0.001800     YES
 RMS     Displacement     0.000440     0.001200     YES
 Predicted change in Energy=-6.056367D-08
 Optimization completed.
    -- Stationary point found.
                       ----------------------------
                       !   Optimized Parameters   !
                       ! (Angstroms and Degrees)  !
 ----------------------                            ----------------------
 !      Name          Value   Derivative information (Atomic Units)     !
 ------------------------------------------------------------------------
 !       R1          1.0923   -DE/DX =    0.0                           !
 !       R2          1.0922   -DE/DX =    0.0                           !
 !       A2        111.1112   -DE/DX =    0.0                           !
 !       R3          1.0923   -DE/DX =    0.0                           !
 !       A3        111.0902   -DE/DX =    0.0                           !
 !       D3        124.2404   -DE/DX =   -0.0001                        !
 !       R4          1.1575   -DE/DX =    0.0                           !
 !       A4        107.8053   -DE/DX =   -0.0001                        !
 !       D4        242.0811   -DE/DX =    0.0001                        !
 !       D6        180.001    -DE/DX =    0.0                           !
 !       A6         89.8996   -DE/DX =    0.0                           !
 !       R5          1.0      -DE/DX =    0.0                           !
 !       A5         90.0      -DE/DX =    0.0                           !
 !       D5        180.0      -DE/DX =    0.0                           !
 !       R6          1.1686   -DE/DX =    0.0122                        !
 ------------------------------------------------------------------------
 Lowest energy point so far.  Saving SCF results.
 GradGradGradGradGradGradGradGradGradGradGradGradGradGradGradGradGradGrad

 Largest change from initial coordinates is atom    6       2.937 Angstoms.
 Leave Link  103 at Fri Aug 23 16:08:32 2019, MaxMem=  2684354560 cpu:         0.1
 (Enter /soft/gaussian/09-e.01/g09/l202.exe)
 ---------------------------------------------------------------------------------------------------
                            Z-MATRIX (ANGSTROMS AND DEGREES)
   CD    Cent   Atom    N1       Length/X        N2       Alpha/Y        N3        Beta/Z          J
 ---------------------------------------------------------------------------------------------------
      1      1  C 
      2      2  H        1   1.092273(     1)
      3      3  H        1   1.092239(     2)      2  111.111(     7)
      4      4  H        1   1.092323(     3)      2  111.090(     8)      3  124.240(    12)      0
      5      5  H        1   1.157514(     4)      2  107.805(     9)      3  242.081(    13)      0
      6         X        5   1.000000(     5)      1   90.000(    10)      2  180.000(    14)      0
      7      6  H        5   1.168571(     6)      6   89.900(    11)      1  180.001(    15)      0
 ---------------------------------------------------------------------------------------------------
                         Z-Matrix orientation:                         
 ---------------------------------------------------------------------
 Center     Atomic      Atomic             Coordinates (Angstroms)
 Number     Number       Type             X           Y           Z
 ---------------------------------------------------------------------
      1          6           0        0.000000    0.000000    0.000000
      2          1           0        0.000000    0.000000    1.092273
      3          1           0        1.018931    0.000000   -0.393402
      4          1           0       -0.573444   -0.842518   -0.393058
      5          1           0       -0.516013    0.973802   -0.353948
      6         -1           0       -0.372839    0.703609   -1.306049
      7          1           0       -1.036680    1.956341   -0.713225
 ---------------------------------------------------------------------
                    Distance matrix (angstroms):
                    1          2          3          4          5
     1  C    0.000000
     2  H    1.092273   0.000000
     3  H    1.092239   1.801513   0.000000
     4  H    1.092323   1.801356   1.801526   0.000000
     5  H    1.157514   1.818272   1.818214   1.817648   0.000000
     6  X    1.529653   2.527058   1.806935   1.806738   1.000000
     7  H    2.326084   2.856886   2.855713   2.854944   1.168571
                    6          7
     6  X    0.000000
     7  H    1.536705   0.000000
 Stoichiometry    CH5(2)
 Framework group  C1[X(CH5)]
 Deg. of freedom    12
 Full point group                 C1      NOp   1
 RotChk:  IX=3 Diff= 5.73D-16
 Largest Abelian subgroup         C1      NOp   1
 Largest concise Abelian subgroup C1      NOp   1
                         Standard orientation:                         
 ---------------------------------------------------------------------
 Center     Atomic      Atomic             Coordinates (Angstroms)
 Number     Number       Type             X           Y           Z
 ---------------------------------------------------------------------
      1          6           0       -0.225699   -0.000055    0.000021
      2          1           0       -0.560699    0.490725    0.916520
      3          1           0       -0.559217   -1.039569   -0.034084
      4          1           0       -0.558089    0.548927   -0.883894
      5          1           0        0.931814    0.000379    0.001053
      6          1           0        2.100385   -0.000131    0.000280
 ---------------------------------------------------------------------
 Rotational constants (GHZ):    154.5185321     60.1098477     60.1069910
 Leave Link  202 at Fri Aug 23 16:08:32 2019, MaxMem=  2684354560 cpu:         0.1
 (Enter /soft/gaussian/09-e.01/g09/l601.exe)
 Copying SCF densities to generalized density rwf, IOpCl= 1 IROHF=0.

 **********************************************************************

            Population analysis using the SCF density.

 **********************************************************************

 Orbital symmetries:
 Alpha Orbitals:
       Occupied  (A) (A) (A) (A) (A) (A)
       Virtual   (A) (A) (A) (A) (A) (A) (A) (A) (A) (A) (A) (A)
                 (A) (A) (A) (A) (A) (A) (A)
 Beta  Orbitals:
       Occupied  (A) (A) (A) (A) (A)
       Virtual   (A) (A) (A) (A) (A) (A) (A) (A) (A) (A) (A) (A)
                 (A) (A) (A) (A) (A) (A) (A) (A)
 The electronic state is 2-A.
 Alpha  occ. eigenvalues --  -10.18277  -0.70579  -0.44576  -0.40337  -0.40332
 Alpha  occ. eigenvalues --   -0.24675
 Alpha virt. eigenvalues --    0.12211   0.16891   0.16894   0.23787   0.52478
 Alpha virt. eigenvalues --    0.52480   0.54587   0.72958   0.88992   0.88999
 Alpha virt. eigenvalues --    0.92648   0.95132   1.21223   1.64045   1.64049
 Alpha virt. eigenvalues --    2.17481   2.22527   2.22531   4.19288
  Beta  occ. eigenvalues --  -10.17748  -0.69257  -0.40718  -0.39991  -0.39986
  Beta virt. eigenvalues --   -0.08170   0.12589   0.17222   0.17224   0.26155
  Beta virt. eigenvalues --    0.52590   0.52592   0.56635   0.83743   0.89419
  Beta virt. eigenvalues --    0.89426   0.94019   0.95591   1.22912   1.65655
  Beta virt. eigenvalues --    1.65657   2.19376   2.23395   2.23399   4.20386
          Condensed to atoms (all electrons):
               1          2          3          4          5          6
     1  C    5.212110   0.377710   0.377762   0.377738   0.313980  -0.100399
     2  H    0.377710   0.527109  -0.024731  -0.024744  -0.026380   0.002883
     3  H    0.377762  -0.024731   0.527069  -0.024726  -0.026430   0.002884
     4  H    0.377738  -0.024744  -0.024726   0.527202  -0.026490   0.002886
     5  H    0.313980  -0.026380  -0.026430  -0.026490   0.624068   0.067230
     6  H   -0.100399   0.002883   0.002884   0.002886   0.067230   1.044095
          Atomic-Atomic Spin Densities.
               1          2          3          4          5          6
     1  C    0.413680  -0.014536  -0.014519  -0.014534   0.040306  -0.120232
     2  H   -0.014536  -0.002287   0.002665   0.002667   0.001682   0.004501
     3  H   -0.014519   0.002665  -0.002333   0.002662   0.001690   0.004501
     4  H   -0.014534   0.002667   0.002662  -0.002339   0.001700   0.004509
     5  H    0.040306   0.001682   0.001690   0.001700  -0.108154  -0.036247
     6  H   -0.120232   0.004501   0.004501   0.004509  -0.036247   0.967805
 Mulliken charges and spin densities:
               1          2
     1  C   -0.558902   0.290164
     2  H    0.168154  -0.005309
     3  H    0.168172  -0.005333
     4  H    0.168134  -0.005335
     5  H    0.074021  -0.099024
     6  H   -0.019579   0.824837
 Sum of Mulliken charges =  -0.00000   1.00000
 Mulliken charges and spin densities with hydrogens summed into heavy atoms:
               1          2
     1  C   -0.000000   1.000000
 Electronic spatial extent (au):  <R**2>=             57.0344
 Charge=             -0.0000 electrons
 Dipole moment (field-independent basis, Debye):
    X=             -0.5854    Y=              0.0001    Z=             -0.0004  Tot=              0.5854
 Quadrupole moment (field-independent basis, Debye-Ang):
   XX=            -10.9786   YY=             -9.4047   ZZ=             -9.4055
   XY=              0.0004   XZ=             -0.0015   YZ=              0.0001
 Traceless Quadrupole moment (field-independent basis, Debye-Ang):
   XX=             -1.0490   YY=              0.5249   ZZ=              0.5241
   XY=              0.0004   XZ=             -0.0015   YZ=              0.0001
 Octapole moment (field-independent basis, Debye-Ang**2):
  XXX=             -5.7382  YYY=             -0.6192  ZZZ=              0.0581  XYY=             -1.4905
  XXY=              0.0002  XXZ=              0.0012  XZZ=             -1.4902  YZZ=              0.6192
  YYZ=             -0.0609  XYZ=             -0.0011
 Hexadecapole moment (field-independent basis, Debye-Ang**3):
 XXXX=            -62.4433 YYYY=            -16.2267 ZZZZ=            -16.2275 XXXY=              0.0011
 XXXZ=             -0.0044 YYYX=              0.4510 YYYZ=              0.0007 ZZZX=             -0.0469
 ZZZY=             -0.0011 XXYY=            -11.9458 XXZZ=            -11.9457 YYZZ=             -5.4088
 XXYZ=              0.0015 YYXZ=              0.0428 ZZXY=             -0.4501
 N-N= 1.559164704512D+01 E-N=-1.251329046412D+02  KE= 4.060167324978D+01
                          Isotropic Fermi Contact Couplings
        Atom                 a.u.       MegaHertz       Gauss      10(-4) cm-1
     1  C(13)              0.12743     143.25224      51.11596      47.78380
     2  H(1)              -0.00226     -10.11779      -3.61028      -3.37493
     3  H(1)              -0.00228     -10.17137      -3.62940      -3.39280
     4  H(1)              -0.00228     -10.19706      -3.63857      -3.40137
     5  H(1)              -0.01692     -75.61837     -26.98251     -25.22357
     6  H(1)               0.26543    1186.42465     423.34580     395.74867
 --------------------------------------------------------
       Center         ----  Spin Dipole Couplings  ----
                      3XX-RR        3YY-RR        3ZZ-RR
 --------------------------------------------------------
     1   Atom        0.345293     -0.172647     -0.172646
     2   Atom        0.005750     -0.013719      0.007969
     3   Atom        0.005733      0.016669     -0.022401
     4   Atom        0.005713     -0.011540      0.005828
     5   Atom        0.186422     -0.093211     -0.093211
     6   Atom       -0.017178      0.008589      0.008589
 --------------------------------------------------------
                        XY            XZ            YZ
 --------------------------------------------------------
     1   Atom        0.000021      0.000584     -0.000006
     2   Atom       -0.006790     -0.012659      0.016283
     3   Atom        0.014349      0.000491      0.001285
     4   Atom       -0.007560      0.012193     -0.017558
     5   Atom        0.000002     -0.000003     -0.000001
     6   Atom        0.000010      0.000017     -0.000000
 --------------------------------------------------------


 ---------------------------------------------------------------------------------
              Anisotropic Spin Dipole Couplings in Principal Axis System
 ---------------------------------------------------------------------------------

       Atom             a.u.   MegaHertz   Gauss  10(-4) cm-1        Axes

              Baa    -0.1727   -23.168    -8.267    -7.728 -0.0008  0.7129  0.7013
     1 C(13)  Bbb    -0.1726   -23.167    -8.266    -7.728 -0.0008 -0.7013  0.7129
              Bcc     0.3453    46.335    16.534    15.456  1.0000  0.0000  0.0011
 
              Baa    -0.0224   -11.972    -4.272    -3.993  0.0004  0.8816 -0.4719
     2 H(1)   Bbb    -0.0042    -2.215    -0.790    -0.739  0.8234  0.2676  0.5005
              Bcc     0.0266    14.187     5.062     4.732 -0.5675  0.3888  0.7258
 
              Baa    -0.0224   -11.975    -4.273    -3.994 -0.0008 -0.0325  0.9995
     3 H(1)   Bbb    -0.0041    -2.214    -0.790    -0.738  0.8237 -0.5667 -0.0177
              Bcc     0.0266    14.189     5.063     4.733  0.5670  0.8233  0.0273
 
              Baa    -0.0224   -11.975    -4.273    -3.994 -0.0004  0.8494  0.5277
     4 H(1)   Bbb    -0.0041    -2.212    -0.789    -0.738  0.8242  0.2992 -0.4809
              Bcc     0.0266    14.187     5.062     4.732  0.5663 -0.4347  0.7002
 
              Baa    -0.0932   -49.733   -17.746   -16.589  0.0000  0.5496  0.8354
     5 H(1)   Bbb    -0.0932   -49.733   -17.746   -16.589 -0.0000  0.8354 -0.5496
              Bcc     0.1864    99.466    35.492    33.178  1.0000  0.0000 -0.0000
 
              Baa    -0.0172    -9.165    -3.270    -3.057  1.0000 -0.0004 -0.0006
     6 H(1)   Bbb     0.0086     4.582     1.635     1.529  0.0007  0.7080  0.7063
              Bcc     0.0086     4.583     1.635     1.529  0.0002 -0.7063  0.7080
 

 ---------------------------------------------------------------------------------

 No NMR shielding tensors so no spin-rotation constants.
 Leave Link  601 at Fri Aug 23 16:08:32 2019, MaxMem=  2684354560 cpu:         3.0
 (Enter /soft/gaussian/09-e.01/g09/l9999.exe)
 1\1\GINC-BLUESLOGIN2\POpt\UB3LYP\6-31G(d)\C1H5(2)\ELLIOTT\23-Aug-2019\
 1\\#P b3lyp/6-31g* # SCF=(xqc) # POpt=() # int=ultrafine\\comment:\\0,
 2\C\H,1,R1\H,1,R2,2,A2\H,1,R3,2,A3,3,D3,0\H,1,R4,2,A4,3,D4,0\X,5,R5,1,
 A5,2,D5,0\H,5,R6,6,A6,1,D6,0\\R1=1.09227275\R2=1.09223899\A2=111.11122
 574\R3=1.09232282\A3=111.09018226\D3=124.24043299\R4=1.15751379\A4=107
 .80525273\D4=242.08107205\D6=180.00098928\A6=89.89959251\R5=1.\A5=90.\
 D5=180.\R6=1.168571\\Version=ES64L-G09RevE.01\State=2-A\HF=-41.0090499
 \S2=0.753814\S2-1=0.\S2A=0.750002\RMSD=7.611e-09\RMSF=4.063e-03\Dipole
 =0.102573,-0.1937748,0.0705403\Quadrupole=0.1581655,-0.4384822,0.28031
 67,0.4383221,-0.1596604,0.3010896\PG=C01 [X(C1H5)]\\@


 In the beginning the Universe was created.
 This has made a lot of people very angry
 and been widely regarded as a bad move.
                               -D.Adams
 Job cpu time:       0 days  0 hours  1 minutes 37.4 seconds.
 File lengths (MBytes):  RWF=     72 Int=      0 D2E=      0 Chk=      2 Scr=      2
 Normal termination of Gaussian 09 at Fri Aug 23 16:08:32 2019.
