[Molden Format]
[Molpro variables]
_NUMVAR=  700.0000000000000    
_EV2006= 0.3674930886769165E-01
_EV= 0.3674932534394180E-01
_KJOULE= 0.3808798324128737E-03
_KJOULE/MOL= 0.3808798324128737E-03
_CM= 0.4556335267302901E-05
_CM-1= 0.4556335267302901E-05
_KCAL= 0.1593601117815568E-02
_KCAL/MOL= 0.1593601117815568E-02
_KELVIN2006= 0.3166828861084835E-05
_KELVIN= 0.3166814820820034E-05
_HERTZ2006= 0.1519829850815779E-15
_HERTZ= 0.1519829846011223E-15
_HZ2006= 0.1519829850815779E-15
_HZ= 0.1519829846011223E-15
_TOA2006= 0.5291772490000000    
_TOA= 0.5291772090000000    
_TOANG2006= 0.5291772490000000    
_TOANG= 0.5291772090000000    
_TORAD= 0.1745329251994330E-01
_TOCM=  219474.6306700000    
_TODEBYE=  2.541580000000000    
_TOEV2006=  27.21139610000000    
_TOEV=  27.21138390000000    
_TOHERTZ2006=  6579683899900000.    
_TOHERTZ=  6579683920700000.    
_TOHZ2006=  6579683899900000.    
_TOHZ=  6579683920700000.    
_TOK2006=  315773.3000000000    
_TOK=  315774.7000000000    
_TOKCAL=  627.5096000000000    
_TOKELVIN2006=  315773.3000000000    
_TOKELVIN=  315774.7000000000    
_TOKJ=  2625.500000000000    
_TOKJOULE=  2625.500000000000    
_ANG2006=  1.889725988578923    
_ANG=  1.889726131421507    
_ANGSTROM2006=  1.889725988578923    
_ANGSTROM=  1.889726131421507    
_IGNORE_UNDEF=  2.000000000000000    
_STRICTCHECK=  0.000000000000000    
_SEW_ONEEL=  0.000000000000000    
_CPPDONE=FALSE
_DKROLL_DONE=  0.000000000000000    
_FOCKDONE=  0.000000000000000    
_GRADONE=FALSE
_HESSDONE=TRUE
_INTDONE=TRUE
_SCFDONE=FALSE
_MODUL_CUDA=FALSE
_MODUL_SLATER=FALSE
_MODUL_MRCC=FALSE
_MRCC_EXEC=
_FITC_AO_SAVED=FALSE
_FITC_MO_SAVED=FALSE
_SHARED_FS=TRUE
_LSTYP=SEWARD
_INTYP=INTS
_GEOMTYP=ZMAT
_GRADTYP=ALASKA
_DIRECT=FALSE
_SYNCM=  0.000000000000000    
_BASIS=CC-PVDZ
_ZORIENT=  1.000000000000000    
_NELEC=  10.00000000000000    
_SPIN=  0.000000000000000    
!SPIN=  0.000000000000000    
_OPTCONV= 0.4454228342390883E-03
_QSDSTEP=  0.000000000000000    
_QSDIRC=  0.000000000000000    
_PROGRAM=FREQ
_CPUSTEP=  0.000000000000000    
_SYSSTEP=  0.000000000000000    
_WALLSTEP= 0.1700000000000000    
!DFMP2=  0.000000000000000    
!DFSCF=  0.000000000000000    
!SCSGRD=  0.000000000000000    
_BASINP=  610.0000000000000    
_CPUTOT=  70.31000000000000    
_DFTEXFAC=  1.000000000000000    
_DMX=-0.6669301547711873E-06
_DMY=-0.3868151452218221E-06
_DMZ= 0.3193899637000306    
_FREQUENCIES= -901.3326399447930    
_EMP2= -40.21497968950233    
_ENERGR= -40.07876070767531    
_ENERGU= -40.24313300048819    
_ENERGY= -40.21497968950233    
_ENUC=  11.47462103568843    
_FREQSTEP=  31.00000000000000    
!RS2GRSTATE=  1.000000000000000    
!RS2GRSYM=  1.000000000000000    
_GRADENERG= -40.21471256841753    
_GRADEXFAC=  9999.000000000000    
_GRADMETHOD=TRUE
_GRADRECORD=  5200.100000000000    
_VIRIAL= 0.1207286328915495    
!GRID_FREEZE= -1.000000000000000    
_ITERATIONS=  0.000000000000000    
_LASTNELEC=  2.000000000000000    
_LASTSPIN=  0.000000000000000    
_LASTSYM=  1.000000000000000    
_MPP_PROG=  1.000000000000000    
_MSENERGY= -40.21497968950233    
_NPROC_MPP=  4.000000000000000    
_NPROC_SMP=  1.000000000000000    
_NUMSTEP=  0.000000000000000    
_OPTCONVMX= 0.2896986785775677E-03
_OPTCONVRMS= 0.5567785427988604E-04
_OPTGRAD= 0.1333925663249050E-03
_OPTGRADMX= 0.8002656537334487E-04
_OPTGRADRMS= 0.1667407079061312E-04
_OPTSTEP=  7.000000000000000    
_ORBITAL=  2142.200000000000    
_PI=  3.141592653589793    
!MCACT=  2.000000000000000    
!MCCLOSED=  4.000000000000000    
!MCFREEZE=  0.000000000000000    
!MCMS2=  0.000000000000000    
!MCNEL=  2.000000000000000    
!MCNSTSYM=  1.000000000000000    
!MCSTATE=  1.000000000000000    
!MCSYM=  1.000000000000000    
!MCWEIGHT=  1.000000000000000    
_SEIG_MIN= 0.1491320263838705E-01
_SEWPROP=TRUE
_STATUS=  1.000000000000000    
_SYSTOT=  3.660000000000000    
_VERSION=  2010001.000000000    
_WALLTOT=  393.3100000000000    
_ZPE= 0.3318916864147672E-01
_DATE=30-Aug-19
_LASTORB=MCSCF
_MACHINE=Linux-2.6.34-12-desktop/tt105(x86_64) 64 bit mpp version
_OUTPUT=/home/carlo/qm/combustion/test_diss/newalg/ch4_ch3_h_vrc_test1/dist_2.4/molpro.xml
_PGROUP=C1
_TIME=02:22:37
_LIBMOL=/programs/molpro2010p/bin/../lib/
!SURFREC=  0.000000000000000    
!POLYREC=  0.000000000000000    
!DIPREC=  0.000000000000000    
!VSCFREC=  0.000000000000000    
!VCIREC=  0.000000000000000    
!PVCIREC=  0.000000000000000    
!VMP2REC=  0.000000000000000    
!VMCSCFREC=  0.000000000000000    
!GAREC=  0.000000000000000    
!SCFORB=  21002.00000000000    
!MCORB=  21422.00000000000    
!CIOCC=  6.000000000000000    
!CICORE=  1.000000000000000    
!CICLOS=  4.000000000000000    
!CIISTSYM=  1.000000000000000    
!CIISTMS2=  0.000000000000000    
!CIISTNEL=  8.000000000000000    
!NEWMOL=  0.000000000000000    
!NEWSYM=  0.000000000000000    
_SLFILES=slscratch
_NGSSTO=  9.000000000000000    
_SIN=SIN
_COS=COS
_TAN=TAN
_ACOS=ACOS
_ASIN=ASIN
_ATAN=ATAN
_COSH=COSH
_SINH=SINH
_TANH=TANH
_ABS=ABS
_MOD=MOD
_ERF=ERF
_REFC=REFC
_ERFC=ERFC
_HYPOT=HYPOT
_J0=J0
_J1=J1
_JN=JN
_GAMMA=GAMMA
_LGAMMA=LGAMMA
_Y0=Y0
_Y1=Y1
_YN=YN
_EXP=EXP
_LOG=LOG
_LOG10=LOG10
_SQRT=SQRT
_INT=INT
_NINT=NINT
_MAX=MAX
_MIN=MIN
_COSMO=  0.000000000000000    
_COSMOIT=  0.000000000000000    
_COSMOES=  0.000000000000000    
_COSMOEDS=  0.000000000000000    
_COSMOEC=  0.000000000000000    
_COSMOEDCORR=  0.000000000000000    
_FEPSI=  1.000000000000000    
_SL_IsMM=  0.000000000000000    
_SL_NSYM=  0.000000000000000    
_SL_System_BitSw=  0.000000000000000    
_SL_Unique_atoms=  0.000000000000000    
_SL_GRAD=  0.000000000000000    
_SL_MAXUPD_Hess=  5.000000000000000    
_SL_N_PRINT_COD=  5.000000000000000    
_SL_PRINT_CODES=  0.000000000000000    
_SL_BasType=  0.000000000000000    
_SL_Energy_Pred=  0.000000000000000    
_SL_New_Coords=  0.000000000000000    
_SL_Total_Nuclea=  0.000000000000000    
_SL_Highest_Mltp=  0.000000000000000    
_SL_Ref_Geom=  0.000000000000000    
!LATTICE= -1.000000000000000    
!NEWLATTICE=  0.000000000000000    
!LATGRAD_VAR=FALSE
!SEW_LATTICE=  1.000000000000000    
!LOCAL=  0.000000000000000    
!SAVEDOM= -1.000000000000000    
!RESTDOM= -1.000000000000000    
!SAVEDOM_HF= -1.000000000000000    
!RESTDOM_HF= -1.000000000000000    
!HESSREC=  5300.200000000000    
!FREQREC=  5400.200000000000    
!NMODREC=  5450.200000000000    
!GTASKS=  0.000000000000000    
!HTASKS=  5500.200000000000    
!THRCHG= 0.1000000000000000    
!DEBUG= -1.000000000000000    
!CFIT_CPHF=  0.000000000000000    
!RDOMAUX_CPHF=  3.000000000000000    
!THRAO_CPHF= 0.1000000000000000E-09
!THRMO_CPHF= 0.1000000000000000E-09
!THROV_CPHF= 0.1000000000000000E-11
!THRSW_CPHF= 0.1000000000000000E-09
!THRPROD_CPHF= 0.1000000000000000E-09
!THRAOPR_CPHF= 0.1000000000000000E-11
!CFIT_SCFGRD=  0.000000000000000    
!RDOMAUX_SCFGRD=  5.000000000000000    
!THRAO_SCFGRD= 0.1000000000000000E-09
!THRMO_SCFGRD= 0.1000000000000000E-09
!THROV_SCFGRD= 0.1000000000000000E-11
!THRSW_SCFGRD= 0.1000000000000000E-09
!THRPROD_SCFGRD= 0.1000000000000000E-09
!THRAOPR_SCFGRD= 0.1000000000000000E-11
!LOCFIT_SCF=  0.000000000000000    
!LOCFIT_MP2= -1.000000000000000    
_RIDOM=  0.000000000000000    
!CC2_METHOD=  0.000000000000000    
_BASIS2006=FALSE
_SVDDEL= -1.000000000000000    
_SVDDELA= -1.000000000000000    
_SVDDELP= -1.000000000000000    
_SVDDELF= -1.000000000000000    
_SVDDELS= -1.000000000000000    
_SVDDEL_ABS= -1.000000000000000    
_SVDDELA_ABS= -1.000000000000000    
_SVDDELP_ABS= -1.000000000000000    
_SVDDELF_ABS= -1.000000000000000    
_SVDDELS_ABS= -1.000000000000000    
_MAXBASIS=  0.000000000000000    
!OPT_CONICAL=  0.000000000000000    
!CLEARSP_JGRID=  0.000000000000000    
RCH1=  1.091347574664256    
RCH2=  1.091349805567277    
RCH3=  1.091350867777255    
AHCC1=  118.8405498754158    
AHCC2=  118.8407434506793    
AHCC3=  96.22307745111263    
B1=  158.7329544273973    
B2= -100.6334147484324    
RCH4=  2.400000000000000    
GX1= 0.3301203323410884E-06
GY1=-0.1440005321165505E-06
GZ1= 0.2428114162729320    
GX2=  1.823708943219232    
GY2=-0.9366898287122287    
GZ2= 0.4663706414746893    
GX3= -1.723054034429268    
GY3= -1.111038737754159    
GZ3= 0.4663593686222829    
GX4=-0.1006628114526880    
GY4=  2.047729035969062    
GZ4= 0.4663672345782787    
GX5= 0.3968822107125458E-05
GY5= 0.1246462949772154E-05
GZ5= -4.292531299137011    
C1X1= 0.3301203323410884E-06
C1Y1=-0.1440005321165505E-06
C1Z1= 0.2428114162729320    
H2X2=  1.823708943219232    
H2Y2=-0.9366898287122287    
H2Z2= 0.4663706414746893    
H3X3= -1.723054034429268    
H3Y3= -1.111038737754159    
H3Z3= 0.4663593686222829    
H4X4=-0.1006628114526880    
H4Y4=  2.047729035969062    
H4Z4= 0.4663672345782787    
H5X5= 0.3968822107125458E-05
H5Y5= 0.1246462949772154E-05
H5Z5= -4.292531299137011    
CBSEN= -40.21497968950233    
[Atoms] Angs
C     1    6         0.0000001747       -0.0000000762        0.1284902676
H     2    1         0.9650652086       -0.4956749093        0.2467927144
H     3    1        -0.9118009249       -0.5879363783        0.2467867491
H     4    1        -0.0532684656        1.0836115360        0.2467909116
H     5    1         0.0000021002        0.0000006596       -2.2715097324
[GTO]
  1 0
 s    9  1.00
  0.6665000000D+04  0.6920001793D-03
  0.1000000000D+04  0.5329001381D-02
  0.2280000000D+03  0.2707700701D-01
  0.6471000000D+02  0.1017180264D+00
  0.2106000000D+02  0.2747400712D+00
  0.7495000000D+01  0.4485641162D+00
  0.2797000000D+01  0.2850740738D+00
  0.5215000000D+00  0.1520400394D-01
  0.1596000000D+00 -0.3191000827D-02
 s    9  1.00
  0.6665000000D+04 -0.1460000642D-03
  0.1000000000D+04 -0.1154000508D-02
  0.2280000000D+03 -0.5725002519D-02
  0.6471000000D+02 -0.2331201026D-01
  0.2106000000D+02 -0.6395502813D-01
  0.7495000000D+01 -0.1499810660D+00
  0.2797000000D+01 -0.1272620560D+00
  0.5215000000D+00  0.5445292395D+00
  0.1596000000D+00  0.5804962554D+00
 s    9  1.00
  0.6665000000D+04  0.0000000000D+00
  0.1000000000D+04  0.0000000000D+00
  0.2280000000D+03  0.0000000000D+00
  0.6471000000D+02  0.0000000000D+00
  0.2106000000D+02  0.0000000000D+00
  0.7495000000D+01  0.0000000000D+00
  0.2797000000D+01  0.0000000000D+00
  0.5215000000D+00  0.0000000000D+00
  0.1596000000D+00  0.1000000000D+01
 p    4  1.00
  0.9439000000D+01  0.3810902127D-01
  0.2002000000D+01  0.2094801169D+00
  0.5456000000D+00  0.5085572839D+00
  0.1517000000D+00  0.4688422617D+00
 p    4  1.00
  0.9439000000D+01  0.0000000000D+00
  0.2002000000D+01  0.0000000000D+00
  0.5456000000D+00  0.0000000000D+00
  0.1517000000D+00  0.1000000000D+01
 d    1  1.00
  0.5500000000D+00  0.1000000000D+01
  
  2 0
 s    4  1.00
  0.1301000000D+02  0.1968498999D-01
  0.1962000000D+01  0.1379769298D+00
  0.4446000000D+00  0.4781477569D+00
  0.1220000000D+00  0.5012397451D+00
 s    4  1.00
  0.1301000000D+02  0.0000000000D+00
  0.1962000000D+01  0.0000000000D+00
  0.4446000000D+00  0.0000000000D+00
  0.1220000000D+00  0.1000000000D+01
 p    1  1.00
  0.7270000000D+00  0.1000000000D+01
  
  3 0
 s    4  1.00
  0.1301000000D+02  0.1968498999D-01
  0.1962000000D+01  0.1379769298D+00
  0.4446000000D+00  0.4781477569D+00
  0.1220000000D+00  0.5012397451D+00
 s    4  1.00
  0.1301000000D+02  0.0000000000D+00
  0.1962000000D+01  0.0000000000D+00
  0.4446000000D+00  0.0000000000D+00
  0.1220000000D+00  0.1000000000D+01
 p    1  1.00
  0.7270000000D+00  0.1000000000D+01
  
  4 0
 s    4  1.00
  0.1301000000D+02  0.1968498999D-01
  0.1962000000D+01  0.1379769298D+00
  0.4446000000D+00  0.4781477569D+00
  0.1220000000D+00  0.5012397451D+00
 s    4  1.00
  0.1301000000D+02  0.0000000000D+00
  0.1962000000D+01  0.0000000000D+00
  0.4446000000D+00  0.0000000000D+00
  0.1220000000D+00  0.1000000000D+01
 p    1  1.00
  0.7270000000D+00  0.1000000000D+01
  
  5 0
 s    4  1.00
  0.1301000000D+02  0.1968498999D-01
  0.1962000000D+01  0.1379769298D+00
  0.4446000000D+00  0.4781477569D+00
  0.1220000000D+00  0.5012397451D+00
 s    4  1.00
  0.1301000000D+02  0.0000000000D+00
  0.1962000000D+01  0.0000000000D+00
  0.4446000000D+00  0.0000000000D+00
  0.1220000000D+00  0.1000000000D+01
 p    1  1.00
  0.7270000000D+00  0.1000000000D+01
 
 
[MO]
 Sym=      1.1
 Ene=     -11.2577
 Spin= Alpha
 Occup=    2.000000
1 1.00129857457029
2 0.007396167909971
3 -0.007739935986927
4 0.000000002548001
5 -0.000000004266958
6 0.000311734386416
7 -0.000000002118494
8 0.000000006507039
9 -0.000005112148346
10 0.000354998899709
11 0.000354998130058
12 -0.000709997029767
13 -0.000000004683009
14 0.000000003966302
15 0.000000000640436
16 -0.000474724252918
17 0.001440958919424
18 0.000420188876184
19 -0.000215815639069
20 0.000086425046338
21 -0.000474712541177
22 0.001440946270129
23 -0.000396996669292
24 -0.000255987156344
25 0.000086421901670
26 -0.000474716629721
27 0.001440943578929
28 -0.000023191758641
29 0.000471804829771
30 0.000086424173308
31 -0.000110631370134
32 0.000329344900790
33 -0.000000000048989
34 -0.000000000030998
35 0.000224933067522
 Sym=      2.1
 Ene=      -0.9076
 Spin= Alpha
 Occup=    2.000000
1 -0.024895028538371
2 0.76333021011297
3 -0.14648276748716
4 0.000000480695509
5 -0.000001018276247
6 0.057292746673974
7 -0.000000274447226
8 0.000000501813739
9 -0.011013776477179
10 0.002071071168049
11 0.002070984842736
12 -0.004142056010785
13 -0.000000033575695
14 0.000000032292344
15 -0.000000006947766
16 0.34689206634885
17 -0.14515740356251
18 -0.024848841242050
19 0.012762783562084
20 -0.001410441059377
21 0.34689028839295
22 -0.14515658140318
23 0.023477270575659
24 0.015138277965850
25 -0.001410269120449
26 0.34688928324891
27 -0.14515620026600
28 0.001371580992435
29 -0.027901011819444
30 -0.001410371990486
31 0.009853845813556
32 -0.003786325946585
33 -0.000000000025455
34 -0.000000002498311
35 0.001189116669143
 Sym=      3.1
 Ene=      -0.5762
 Spin= Alpha
 Occup=    2.000000
1 0.000000018889914
2 0.000000849394910
3 0.000000640745543
4 -0.54386070556431
5 0.34827810953923
6 -0.000001386959248
7 0.10070213795369
8 -0.064487679297150
9 0.000000347225409
10 -0.013473357859601
11 0.013473414799610
12 -0.000000056940009
13 0.017848445529325
14 -0.006625700198506
15 0.004243018937213
16 -0.63101680452699
17 0.18131792817829
18 0.020376474763108
19 -0.009137028559093
20 0.003019892798597
21 0.26338045825644
22 -0.075680224132559
23 0.001687276165310
24 0.014558973376192
25 -0.001260423421386
26 0.36763756266238
27 -0.10563766946533
28 -0.009489374487276
29 -0.013474410587968
30 -0.001759419177184
31 0.000000096419759
32 -0.000000051150624
33 -0.000657065048831
34 0.000420770917578
35 0.000000007943982
 Sym=      4.1
 Ene=      -0.5762
 Spin= Alpha
 Occup=    2.000000
1 -0.000000001370361
2 -0.000000541774459
3 -0.000000180455429
4 -0.34827813114965
5 -0.54386011965690
6 -0.000001530218458
7 0.064487392309900
8 0.10070136985429
9 0.000000262580917
10 0.015457151344312
11 -0.015457122448256
12 -0.000000028896057
13 0.015557831557562
14 -0.004242880402863
15 -0.006625619510700
16 -0.060192977253503
17 0.017295917585607
18 -0.003768760227477
19 -0.011993603773918
20 0.000288041397431
21 0.57657301771626
22 -0.16567343968111
23 0.019927234585450
24 0.006695659622378
25 -0.002759201690804
26 -0.51638019987100
27 0.14837744373730
28 -0.008106135102264
29 0.017872336407563
30 0.002471198662859
31 0.000000038691983
32 -0.000000015808378
33 -0.000420775495930
34 -0.000657067968310
35 0.000000002156204
 Sym=      5.1
 Ene=      -0.2656
 Spin= Alpha
 Occup=    1.599280
1 0.001619539741766
2 -0.037601033783904
3 -0.031501599830714
4 -0.000001841125946
5 -0.000000500048184
6 0.54770102445240
7 -0.000000209277919
8 -0.000000010729344
9 0.061162249639965
10 0.005865182710561
11 0.005865186663955
12 -0.011730369374516
13 -0.000000000993077
14 0.000000052385180
15 -0.000000018949162
16 0.051784940884130
17 -0.012329958244196
18 -0.001650259195608
19 0.000847567814565
20 0.012109690106378
21 0.051785113422754
22 -0.012329870893154
23 0.001559101291868
24 0.001005334567091
25 0.012109670291416
26 0.051785058619317
27 -0.012329820254166
28 0.000091044105265
29 -0.001852934349701
30 0.012109656218928
31 -0.62992566617310
32 -0.046722195595688
33 -0.000000000154995
34 0.000000002900682
35 -0.000670598117551
 Sym=      6.1
 Ene=       0.0054
 Spin= Alpha
 Occup=    0.400720
1 0.002938205272963
2 -0.11971517719608
3 -0.062032949195081
4 -0.000002070092211
5 -0.000000624842817
6 0.71121828286653
7 -0.000000260026487
8 -0.000000052470036
9 0.076519588857780
10 0.005112943687815
11 0.005112945133259
12 -0.010225888821074
13 -0.000000006622574
14 0.000000075843309
15 -0.000000028630619
16 0.025708932161094
17 -0.006033091977958
18 0.000090660451034
19 -0.000046599563689
20 0.013862197083694
21 0.025708547214831
22 -0.006033013318583
23 -0.000085752170909
24 -0.000055280026180
25 0.013862159734013
26 0.025708809069931
27 -0.006032977618125
28 -0.000005048473390
29 0.000101837088695
30 0.013862145669444
31 0.85194534381923
32 -0.084815702897066
33 -0.000000001113736
34 -0.000000002694059
35 -0.002051322408726
 Sym=      7.1
 Ene=       0.1992
 Spin= Alpha
 Occup=    0.000000
1 0.082543277950119
2 -0.20451560302332
3 -2.06414410961896
4 0.000001365214142
5 -0.000001172726539
6 -0.094155437508353
7 0.000002227734822
8 -0.000001238943124
9 -0.11226691767796
10 -0.011275740490856
11 -0.011275739446722
12 0.022551479937578
13 0.000000072185564
14 -0.000000123593590
15 -0.000000028640591
16 0.065334077062862
17 1.00648697223174
18 -0.014516764134374
19 0.007456006257132
20 -0.004459570007798
21 0.065334508601084
22 1.00648878678071
23 0.013715534410549
24 0.008843804031625
25 -0.004459440485705
26 0.065335039633450
27 1.00649074315740
28 0.000801283630903
29 -0.016299904589013
30 -0.004459501802245
31 -0.097680098416177
32 0.005297086690625
33 -0.000000019201509
34 -0.000000013433622
35 0.001558253922522
 Sym=      8.1
 Ene=       0.2653
 Spin= Alpha
 Occup=    0.000000
1 -0.000000182167033
2 -0.000000179993298
3 0.000007175443157
4 -0.091589983988720
5 -0.44418290587195
6 -0.000000473660267
7 -0.24554145331445
8 -1.19080648719668
9 -0.000001609165298
10 0.018112765507754
11 -0.018112560118976
12 -0.000000205388778
13 0.007651085219296
14 -0.002156066626641
15 -0.010456706847068
16 -0.009460093475808
17 -0.57135951454825
18 0.004526657656040
19 -0.006796542770300
20 0.000313083516236
21 -0.024744799710217
22 -1.49434952638346
23 -0.014079622182815
24 -0.012584290758575
25 0.000818764514871
26 0.034206265677457
27 2.06569926615714
28 0.000235961355739
29 -0.025803647023130
30 -0.001131879350662
31 0.000000443179541
32 -0.000000019072779
33 0.000475696545078
34 0.002306899895709
35 -0.000000028412025
 Sym=      9.1
 Ene=       0.2653
 Spin= Alpha
 Occup=    0.000000
1 -0.000000147407781
2 0.000000229124755
3 0.000008456610487
4 0.44418251183016
5 -0.091589615664629
6 0.000001480193882
7 1.19080789792142
8 -0.24554381215235
9 0.000004009398312
10 0.006626152604419
11 -0.006626057126383
12 -0.000000095478035
13 -0.020914932131656
14 0.010456740906414
15 -0.002156254603302
16 -0.034034187660228
17 -2.05540547886731
18 0.023326720319349
19 -0.010738022442145
20 0.001126313508469
21 0.025211323160490
22 1.52250541997806
23 0.017538629112610
24 0.007868282639627
25 -0.000834182071866
26 0.008823728918379
27 0.53288945611892
28 0.004319221329888
29 -0.006447218133463
30 -0.000291976837132
31 0.000000044029002
32 0.000000301314572
33 -0.002306907749595
34 0.000475663393263
35 -0.000000015145123
 Sym=     10.1
 Ene=       0.6056
 Spin= Alpha
 Occup=    0.000000
1 -0.000000623824172
2 -0.000001533988715
3 0.000005722741977
4 -0.42338225400911
5 -0.13658723790312
6 -0.000001968015105
7 1.54251050760522
8 0.49762634690668
9 0.000007777443802
10 0.017575905360156
11 -0.017576413715949
12 0.000000508355793
13 0.12209434289364
14 -0.019960797671306
15 -0.006439295795368
16 -0.93737881561363
17 0.34686534767436
18 0.019560238127036
19 0.043936772162599
20 -0.004939685718925
21 1.28234927055578
22 -0.47452305846166
23 0.006399167464040
24 -0.016673482178321
25 0.006757644906020
26 -0.34498131343239
27 0.12766226851546
28 0.065470215445252
29 0.002232771400321
30 -0.001817762486379
31 -0.000005141681579
32 0.000006784415984
33 0.036652402059282
34 0.011824434591004
35 -0.000000048562400
 Sym=     11.1
 Ene=       0.6056
 Spin= Alpha
 Occup=    0.000000
1 0.000000248985402
2 0.000001571668222
3 -0.000006609673313
4 0.13658811973159
5 -0.42338191854018
6 -0.000000705636334
7 -0.49763510309190
8 1.54251057744386
9 0.000001087272435
10 0.10573669732019
11 -0.10573743174452
12 0.000000734424329
13 -0.020294601639706
14 0.006439998755452
15 -0.019961270526868
16 0.93953610465455
17 -0.34765829514049
18 0.024272566292626
19 0.041392545224577
20 0.004951232671249
21 0.34201975174903
22 -0.12656222578805
23 -0.036337794366741
24 0.054554542022527
25 0.001802234932452
26 -1.28156490072610
27 0.47423370470400
28 -0.017431269258807
29 -0.004516931881576
30 -0.006753703701294
31 -0.000003992353896
32 0.000004426996989
33 -0.011824526707596
34 0.036652501084545
35 0.000000071653580
 Sym=     12.1
 Ene=       0.6568
 Spin= Alpha
 Occup=    0.000000
1 0.013138493897425
2 -0.12675895967331
3 -0.13541983866783
4 -0.000000756974735
5 -0.000003670273252
6 0.37171561502194
7 0.000003661771711
8 0.000012286030370
9 -0.82013090419477
10 0.066575129979204
11 0.066574874710708
12 -0.13315000468991
13 0.000000600464778
14 0.000000516794364
15 0.000000158849235
16 0.56981997007651
17 -0.31664006934117
18 0.051354944990520
19 -0.026376348566577
20 0.026192064100357
21 0.56982895200842
22 -0.31664777117463
23 -0.048520686727955
24 -0.031286366410652
25 0.026191892620544
26 0.56981798322267
27 -0.31664896944724
28 -0.002834332871007
29 0.057663345080897
30 0.026191769238564
31 1.63930723111476
32 -1.98906416367840
33 0.000000118022350
34 0.000000199994080
35 0.013726735416490
 Sym=     13.1
 Ene=       0.7368
 Spin= Alpha
 Occup=    0.000000
1 -0.096134451054603
2 -0.17179109802574
3 0.61381289161166
4 0.000001960198738
5 0.000003774102069
6 -0.79514195470326
7 -0.000001940664871
8 -0.000009286218420
9 0.85421214116123
10 -0.078872830474213
11 -0.078873758740316
12 0.15774658921453
13 0.000000105708573
14 -0.000000807040829
15 -0.000000243968441
16 -0.72848154206492
17 0.53228847463932
18 -0.046263788048776
19 0.023761876482733
20 -0.009636362079633
21 -0.72848487771469
22 0.53229353365311
23 0.043710206072693
24 0.028184655102171
25 -0.009635582621866
26 -0.72848393302461
27 0.53230084633205
28 0.002553615332887
29 -0.051947060983058
30 -0.009635756188619
31 1.35548790888261
32 -1.49871950093051
33 -0.000000118835829
34 -0.000000118306693
35 0.041578005827182
 Sym=     14.1
 Ene=       0.7858
 Spin= Alpha
 Occup=    0.000000
1 0.040352224607592
2 -0.021065772937475
3 0.040784574645014
4 0.000006978580142
5 -0.000004878539379
6 -1.19497296963583
7 -0.000009619492650
8 0.000011463559179
9 1.49005888734256
10 0.093049978554892
11 0.093051808427957
12 -0.18610178698285
13 0.000000377950410
14 0.000000925477191
15 0.000000333977176
16 0.66715017223979
17 -0.65556193392244
18 0.087196970441458
19 -0.044785634941763
20 -0.038421571107521
21 0.66715653275640
22 -0.65557312133065
23 -0.082384279034069
24 -0.053122221239527
25 -0.038421727278538
26 0.66715567084265
27 -0.65558188641731
28 -0.004812608727459
29 0.097909083983951
30 -0.038420966944614
31 -0.15593485541689
32 0.54759546148198
33 0.000000067895326
34 0.000000178914826
35 -0.14690900946029
 Sym=     15.1
 Ene=       0.8852
 Spin= Alpha
 Occup=    0.000000
1 0.000001259870022
2 0.000004489304536
3 -0.000005549196323
4 0.49951103842010
5 1.15192461058378
6 0.000001161497945
7 -0.91768203601935
8 -2.11627130134902
9 -0.000002837608684
10 0.24199804337481
11 -0.24199651646675
12 -0.000001526908069
13 0.17383702300022
14 -0.025069156336922
15 -0.057814173385952
16 0.039809564771043
17 -0.13117403570940
18 0.048161026358633
19 0.053560320865491
20 0.002341446592534
21 0.50708919754117
22 -1.67098669267278
23 -0.21767980612594
24 -0.094231516070629
25 0.029825970670760
26 -0.54688958567291
27 1.80215401005767
28 0.043232301540267
29 -0.25055892992674
30 -0.032168375012283
31 -0.000001990966295
32 0.000003181099058
33 -0.008741547742293
34 -0.020159101179159
35 -0.000000726781785
 Sym=     16.1
 Ene=       0.8852
 Spin= Alpha
 Occup=    0.000000
1 0.000002429706991
2 0.000008995725318
3 -0.000010863601638
4 -1.15192256229362
5 0.49951048458966
6 -0.000006045226596
7 2.11626962870042
8 -0.91768253588813
9 0.000009073463645
10 0.15054780063853
11 -0.15054614866830
12 -0.000001651970229
13 -0.27943596474383
14 0.057815156328518
15 -0.025071404696938
16 0.60851848896760
17 -2.00522326480452
18 0.24771472776430
19 -0.13235269697311
20 0.035793572049442
21 -0.33872646527551
22 1.11620660939503
23 0.099921875492715
24 0.13348848983093
25 -0.019923971888082
26 -0.26978098250213
27 0.88901040969633
28 -0.056405959672867
29 -0.12742285797509
30 -0.015869177941002
31 0.000000748073005
32 0.000000908727621
33 0.020159128385792
34 -0.008741721413086
35 -0.000001253243149
 Sym=     17.1
 Ene=       1.0497
 Spin= Alpha
 Occup=    0.000000
1 0.77001183987624
2 3.51184123155888
3 -5.84495588465134
4 0.000000558345308
5 -0.000001207529522
6 0.005936476478886
7 -0.000002392335380
8 0.000006037731844
9 -0.16294567254075
10 -0.007661608318324
11 -0.007659577559641
12 0.015321185877965
13 0.000001473578062
14 -0.000000498610599
15 0.000000028130760
16 0.10384789573337
17 0.86105324973722
18 -0.15507362392869
19 0.079648414619568
20 -0.040445204355943
21 0.10384909480803
22 0.86104462579646
23 0.14651361997230
24 0.094472679341775
25 -0.040443859368470
26 0.10384904858745
27 0.86103963130450
28 0.008559650281919
29 -0.17412019461009
30 -0.040444716731634
31 0.14845321850252
32 -0.062137106293311
33 -0.000000064727544
34 0.000000058830660
35 -0.19826955901232
 Sym=     18.1
 Ene=       1.2008
 Spin= Alpha
 Occup=    0.000000
1 -0.000000272030263
2 -0.000001231346348
3 0.000002218742574
4 -0.005946610794022
5 0.031219755122096
6 -0.000001441552430
7 -0.009275976828037
8 0.048696877785550
9 0.000001390236556
10 -0.10538505395869
11 0.10538527197021
12 -0.000000218011526
13 0.004978160286169
14 0.11453535618418
15 -0.60130945452586
16 0.044347236254019
17 -0.015520612914337
18 -0.052622742827346
19 -0.065970363838022
20 0.24455649696465
21 0.027035979570135
22 -0.009462279760554
23 0.061254588598147
24 -0.076245738548267
25 0.14909512060681
26 -0.071383920269273
27 0.024982211786373
28 0.013216656577512
29 0.027513037076221
30 -0.39365239173338
31 0.000000110076561
32 -0.000000003150932
33 -0.010302978278008
34 0.054090408525290
35 -0.000000072723988
 Sym=     19.1
 Ene=       1.2008
 Spin= Alpha
 Occup=    0.000000
1 0.000000350741643
2 0.000001532178171
3 -0.000002477627599
4 -0.031219451533405
5 -0.005946651189355
6 -0.000000826198582
7 -0.048697325835154
8 -0.009275426502445
9 0.000000516646105
10 0.004306121754278
11 -0.004309333734871
12 0.000003211980593
13 0.12168655465554
14 0.60130984444206
15 0.11453653743467
16 0.056823121729019
17 -0.019885938797815
18 0.010497440288122
19 0.067186996536817
20 0.31335473230250
21 -0.066817069083308
22 0.023384373647605
23 0.000224361795644
24 -0.046689263429776
25 -0.36847058165709
26 0.009994208864291
27 -0.003497376565977
28 0.10398123572899
29 0.001350460912913
30 0.055115118996862
31 0.000000828150657
32 -0.000001045507772
33 -0.054090531277293
34 -0.010303054663598
35 0.000000572486239
 Sym=     20.1
 Ene=       1.5266
 Spin= Alpha
 Occup=    0.000000
1 -0.000000311924219
2 -0.000001520390767
3 0.000001903383319
4 -0.028401249814220
5 0.10463906242931
6 0.000000387401832
7 -0.022262616913084
8 0.082024789360314
9 -0.000000257661491
10 -0.11745560436313
11 0.11745637894113
12 -0.000000774578005
13 0.016034350175736
14 -0.010286204844753
15 0.037896977632035
16 0.18525758698633
17 -0.073988037533968
18 -0.008811678015296
19 -0.11697576521181
20 -0.059181587488822
21 0.083250991353581
22 -0.033248459576677
23 0.058329692040652
24 -0.12827859817338
25 -0.026595046111571
26 -0.26850990020119
27 0.10723691634036
28 0.034549467700104
29 -0.064481061196324
30 0.085776433790437
31 0.000000000348973
32 -0.000000062130553
33 -0.24958609550342
34 0.91956584590157
35 -0.000000161180773
 Sym=     21.1
 Ene=       1.5266
 Spin= Alpha
 Occup=    0.000000
1 0.000000440122199
2 0.000001969879576
3 -0.000003288426334
4 0.10463918817088
5 0.028400486177572
6 0.000000044548179
7 0.082022730546020
8 0.022262715095466
9 0.000000293396696
10 -0.013886977582163
11 0.013885961441766
12 0.000001016140397
13 -0.13562582210958
14 0.037896490112046
15 0.010285452188208
16 -0.20308751948257
17 0.081109293196412
18 -0.089514171381505
19 -0.064854721236792
20 0.064877364886465
21 0.26198059953120
22 -0.10462867602784
23 -0.078209572641528
24 0.002283943856557
25 -0.083691253886310
26 -0.058892039531585
27 0.023520460074494
28 -0.14200967658199
29 -0.021496294352221
30 0.018813226804907
31 0.000000399916818
32 -0.000000419333004
33 0.91956646217697
34 0.24958620571397
35 0.000000403894985
 Sym=     22.1
 Ene=       1.6118
 Spin= Alpha
 Occup=    0.000000
1 -0.000000001089108
2 -0.000000004482034
3 0.000000007458523
4 -0.000001489817146
5 -0.000000195500593
6 0.000000001329866
7 0.000008240072588
8 -0.000002001353457
9 -0.000000000957138
10 0.000001283175743
11 -0.000001282817130
12 -0.000000000358614
13 -0.000002810636355
14 0.000000470343997
15 -0.000000284858595
16 -0.000007753265483
17 0.000001317941318
18 0.27163917611900
19 0.52887725391765
20 0.000002153299597
21 0.000004404479809
22 0.000000012091310
23 0.32220012245044
24 -0.49968424224207
25 0.000000042033874
26 0.000003345219419
27 -0.000001330450964
28 -0.59384423595124
29 -0.029190976290146
30 -0.000002197512591
31 0.000000000262980
32 -0.000000000687975
33 -0.000004278961105
34 0.000001483068246
35 -0.000000002979119
 Sym=     23.1
 Ene=       1.6391
 Spin= Alpha
 Occup=    0.000000
1 0.37297168230401
2 1.51132324726761
3 -2.63776459327315
4 -0.000000487833176