
    -----------------------------------------------------------------------
          Psi4: An Open-Source Ab Initio Electronic Structure Package
                               Psi4 1.3.2 release

                         Git: Rev {HEAD} ecbda83 


    R. M. Parrish, L. A. Burns, D. G. A. Smith, A. C. Simmonett,
    A. E. DePrince III, E. G. Hohenstein, U. Bozkaya, A. Yu. Sokolov,
    R. Di Remigio, R. M. Richard, J. F. Gonthier, A. M. James,
    H. R. McAlexander, A. Kumar, M. Saitow, X. Wang, B. P. Pritchard,
    P. Verma, H. F. Schaefer III, K. Patkowski, R. A. King, E. F. Valeev,
    F. A. Evangelista, J. M. Turney, T. D. Crawford, and C. D. Sherrill,
    J. Chem. Theory Comput. 13(7) pp 3185--3197 (2017).
    (doi: 10.1021/acs.jctc.7b00174)


                         Additional Contributions by
    P. Kraus, H. Kruse, M. H. Lechner, M. C. Schieber, R. A. Shaw,
    A. Alenaizan, R. Galvelis, Z. L. Glick, S. Lehtola, and J. P. Misiewicz

    -----------------------------------------------------------------------


    Psi4 started on: Monday, 09 September 2019 05:09PM

    Process ID: 12874
    Host:       Ewan
    PSIDATADIR: /home/snelliott/miniconda/envs/pacc-env-mini/share/psi4
    Memory:     500.0 MiB
    Threads:    1
    
  ==> Input File <==

--------------------------------------------------------------------------
#! 
memory 1 GB

molecule {

0 1
O  
O  1    R1 
H  1    R2  2    A2 
H  2    R3  1    A3  3    D3 
R1   =   1.454052
R2   =   0.976073
A2   =  96.772900
R3   =   0.976073
A3   =  96.772800
D3   = 129.368000
}
set basis 6-31g*
set scf_type pk
set reference rks
set mp2_type conv
optimize('B3LYP')
--------------------------------------------------------------------------

  Memory set to 953.674 MiB by Python driver.
gradient() will perform analytic gradient computation.

*** tstart() called on Ewan
*** at Mon Sep  9 17:09:28 2019

   => Loading Basis Set <=

    Name: 6-31G*
    Role: ORBITAL
    Keyword: BASIS
    atoms 1-2 entry O          line   145 file /home/snelliott/miniconda/envs/pacc-env-mini/share/psi4/basis/6-31gs.gbs 
    atoms 3-4 entry H          line    44 file /home/snelliott/miniconda/envs/pacc-env-mini/share/psi4/basis/6-31gs.gbs 


         ---------------------------------------------------------
                                   SCF
               by Justin Turney, Rob Parrish, Andy Simmonett
                          and Daniel G. A. Smith
                              RKS Reference
                        1 Threads,    953 MiB Core
         ---------------------------------------------------------

  ==> Geometry <==

    Molecular point group: c1
    Full point group: C1

    Geometry (in Angstrom), charge = 0, multiplicity = 1:

       Center              X                  Y                   Z               Mass       
    ------------   -----------------  -----------------  -----------------  -----------------
         O            0.022207831006    -0.010505175973    -0.727025949863    15.994914619570
         O            0.022207831006    -0.010505175973     0.727026050137    15.994914619570
         H            0.022207831006     0.958756201227    -0.842138433970     1.007825032230
         H           -0.727116618678    -0.625306669059     0.842136842563     1.007825032230

  Running in c1 symmetry.

  Rotational constants: A =      9.67497  B =      0.89694  C =      0.84773 [cm^-1]
  Rotational constants: A = 290048.39638  B =  26889.44216  C =  25414.27196 [MHz]
  Nuclear repulsion =   36.774416520214039

  Charge       = 0
  Multiplicity = 1
  Electrons    = 18
  Nalpha       = 9
  Nbeta        = 9

  ==> Algorithm <==

  SCF Algorithm Type is PK.
  DIIS enabled.
  MOM disabled.
  Fractional occupation disabled.
  Guess Type is SAD.
  Energy threshold   = 1.00e-08
  Density threshold  = 1.00e-08
  Integral threshold = 0.00e+00

  ==> Primary Basis <==

  Basis Set: 6-31G*
    Blend: 6-31G*
    Number of shells: 16
    Number of basis function: 34
    Number of Cartesian functions: 34
    Spherical Harmonics?: false
    Max angular momentum: 2

  ==> DFT Potential <==

   => Composite Functional: B3LYP <= 

    B3LYP Hyb-GGA Exchange-Correlation Functional

    P. J. Stephens, F. J. Devlin, C. F. Chabalowski, and M. J. Frisch, J. Phys. Chem. 98, 11623 (1994)

    Deriv               =              1
    GGA                 =           TRUE
    Meta                =          FALSE

    Exchange Hybrid     =           TRUE
    MP2 Hybrid          =          FALSE

   => Exchange Functionals <=

    0.0800   Slater exchange
    0.7200         Becke 88

   => Exact (HF) Exchange <=

    0.2000               HF 

   => Correlation Functionals <=

    0.1900   Vosko, Wilk & Nusair (VWN5_RPA)
    0.8100   Lee, Yang & Parr

   => Molecular Quadrature <=

    Radial Scheme          =       TREUTLER
    Pruning Scheme         =           FLAT
    Nuclear Scheme         =       TREUTLER

    BS radius alpha        =              1
    Pruning alpha          =              1
    Radial Points          =             75
    Spherical Points       =            302
    Total Points           =          87138
    Total Blocks           =            708
    Max Points             =            254
    Max Functions          =             34

  ==> Pre-Iterations <==

   -------------------------------------------------------
    Irrep   Nso     Nmo     Nalpha   Nbeta   Ndocc  Nsocc
   -------------------------------------------------------
     A         34      34       0       0       0       0
   -------------------------------------------------------
    Total      34      34       9       9       9       0
   -------------------------------------------------------

  ==> Integral Setup <==

  Using in-core PK algorithm.
   Calculation information:
      Number of atoms:                   4
      Number of AO shells:              16
      Number of primitives:             38
      Number of atomic orbitals:        34
      Number of basis functions:        34

      Integral cutoff                 1.00e-12
      Number of threads:                 1

  Performing in-core PK
  Using 354620 doubles for integral storage.
  We computed 9304 shell quartets total.
  Whereas there are 9316 unique shell quartets.

  ==> DiskJK: Disk-Based J/K Matrices <==

    J tasked:                  Yes
    K tasked:                  Yes
    wK tasked:                  No
    Memory [MiB]:              633
    Schwarz Cutoff:          1E-12

    OpenMP threads:              1

  Cached 100.0% of DFT collocation blocks in 0.080 [GiB].

  Minimum eigenvalue in the overlap matrix is 1.1115674408E-02.
  Using Symmetric Orthogonalization.

  SCF Guess: Superposition of Atomic Densities via on-the-fly atomic UHF.

  ==> Iterations <==

                        Total Energy        Delta E     RMS |[F,P]|

   @RKS iter SAD:  -151.09464268101348   -1.51095e+02   0.00000e+00 
   @RKS iter   1:  -151.44687072272950   -3.52228e-01   1.37860e-02 DIIS
   @RKS iter   2:  -151.42714496900555    1.97258e-02   1.57956e-02 DIIS
   @RKS iter   3:  -151.53217516069884   -1.05030e-01   9.18589e-04 DIIS
   @RKS iter   4:  -151.53253360552233   -3.58445e-04   9.86861e-05 DIIS
   @RKS iter   5:  -151.53253778654675   -4.18102e-06   1.06800e-05 DIIS
   @RKS iter   6:  -151.53253783487060   -4.83238e-08   1.46494e-06 DIIS
   @RKS iter   7:  -151.53253783584429   -9.73699e-10   1.53324e-07 DIIS
   @RKS iter   8:  -151.53253783585677   -1.24771e-11   2.55569e-08 DIIS
   @RKS iter   9:  -151.53253783585680   -2.84217e-14   6.53768e-09 DIIS
  Energy and wave function converged.


  ==> Post-Iterations <==

    Orbital Energies [Eh]
    ---------------------

    Doubly Occupied:                                                      

       1A    -19.202426     2A    -19.202347     3A     -1.113594  
       4A     -0.891002     5A     -0.510830     6A     -0.498963  
       7A     -0.411467     8A     -0.329562     9A     -0.261606  

    Virtual:                                                              

      10A      0.028623    11A      0.067171    12A      0.114752  
      13A      0.778762    14A      0.779756    15A      0.811722  
      16A      0.840309    17A      0.913847    18A      0.955131  
      19A      0.983110    20A      1.048000    21A      1.184142  
      22A      1.329256    23A      1.499115    24A      1.508673  
      25A      1.717998    26A      1.769661    27A      1.967442  
      28A      2.263000    29A      2.331336    30A      2.482964  
      31A      2.501038    32A      2.946415    33A      3.432945  
      34A      3.642541  

    Final Occupation by Irrep:
              A 
    DOCC [     9 ]

  @RKS Final Energy:  -151.53253783585680

   => Energetics <=

    Nuclear Repulsion Energy =             36.7744165202140394
    One-Electron Energy =                -281.4047491708427629
    Two-Electron Energy =                 107.5337880549543002
    DFT Exchange-Correlation Energy =     -14.4359932401823663
    Empirical Dispersion Energy =           0.0000000000000000
    VV10 Nonlocal Energy =                  0.0000000000000000
    Total Energy =                       -151.5325378358568003

Computation Completed


Properties will be evaluated at   0.000000,   0.000000,   0.000000 [a0]

Properties computed using the SCF density matrix

  Nuclear Dipole Moment: [e a0]
     X:    -0.6606      Y:     0.3125      Z:    -0.0000

  Electronic Dipole Moment: [e a0]
     X:     0.1264      Y:    -0.0598      Z:     0.0000

  Dipole Moment: [e a0]
     X:    -0.5342      Y:     0.2527      Z:    -0.0000     Total:     0.5909

  Dipole Moment: [D]
     X:    -1.3578      Y:     0.6423      Z:    -0.0000     Total:     1.5020


*** tstop() called on Ewan at Mon Sep  9 17:09:30 2019
Module time:
	user time   =       2.10 seconds =       0.04 minutes
	system time =       0.08 seconds =       0.00 minutes
	total time  =          2 seconds =       0.03 minutes
Total time:
	user time   =       2.10 seconds =       0.04 minutes
	system time =       0.08 seconds =       0.00 minutes
	total time  =          2 seconds =       0.03 minutes

*** tstart() called on Ewan
*** at Mon Sep  9 17:09:30 2019


         ------------------------------------------------------------
                                   SCF GRAD                          
                          Rob Parrish, Justin Turney,                
                       Andy Simmonett, and Alex Sokolov              
         ------------------------------------------------------------

  ==> Geometry <==

    Molecular point group: c1
    Full point group: C1

    Geometry (in Angstrom), charge = 0, multiplicity = 1:

       Center              X                  Y                   Z               Mass       
    ------------   -----------------  -----------------  -----------------  -----------------
         O            0.022207831006    -0.010505175973    -0.727025949863    15.994914619570
         O            0.022207831006    -0.010505175973     0.727026050137    15.994914619570
         H            0.022207831006     0.958756201227    -0.842138433970     1.007825032230
         H           -0.727116618678    -0.625306669059     0.842136842563     1.007825032230

  Nuclear repulsion =   36.774416520214039

  ==> Basis Set <==

  Basis Set: 6-31G*
    Blend: 6-31G*
    Number of shells: 16
    Number of basis function: 34
    Number of Cartesian functions: 34
    Spherical Harmonics?: false
    Max angular momentum: 2

  ==> DirectJKGrad: Integral-Direct SCF Gradients <==

    Gradient:                    1
    J tasked:                  Yes
    K tasked:                  Yes
    wK tasked:                  No
    Integrals threads:           1
    Schwarz Cutoff:          0E+00

  ==> DFT Potential <==

   => Composite Functional: B3LYP <= 

    B3LYP Hyb-GGA Exchange-Correlation Functional

    P. J. Stephens, F. J. Devlin, C. F. Chabalowski, and M. J. Frisch, J. Phys. Chem. 98, 11623 (1994)

    Deriv               =              1
    GGA                 =           TRUE
    Meta                =          FALSE

    Exchange Hybrid     =           TRUE
    MP2 Hybrid          =          FALSE

   => Exchange Functionals <=

    0.0800   Slater exchange
    0.7200         Becke 88

   => Exact (HF) Exchange <=

    0.2000               HF 

   => Correlation Functionals <=

    0.1900   Vosko, Wilk & Nusair (VWN5_RPA)
    0.8100   Lee, Yang & Parr

   => Molecular Quadrature <=

    Radial Scheme          =       TREUTLER
    Pruning Scheme         =           FLAT
    Nuclear Scheme         =       TREUTLER

    BS radius alpha        =              1
    Pruning alpha          =              1
    Radial Points          =             75
    Spherical Points       =            302
    Total Points           =          87138
    Total Blocks           =            708
    Max Points             =            254
    Max Functions          =             34


  -Total Gradient:
     Atom            X                  Y                   Z
    ------   -----------------  -----------------  -----------------
       1       -0.003627767939    -0.010665618953     0.003352592515
       2        0.005944481574     0.009569733427    -0.003352399384
       3        0.000245553874     0.003525640624     0.006130135905
       4       -0.002569884340    -0.002426152094    -0.006130329270


*** tstop() called on Ewan at Mon Sep  9 17:09:31 2019
Module time:
	user time   =       0.47 seconds =       0.01 minutes
	system time =       0.01 seconds =       0.00 minutes
	total time  =          1 seconds =       0.02 minutes
Total time:
	user time   =       2.57 seconds =       0.04 minutes
	system time =       0.09 seconds =       0.00 minutes
	total time  =          3 seconds =       0.05 minutes

			-----------------------------------------
			 OPTKING 2.0: for geometry optimizations 
			  - R.A. King,  Bethel University        
			-----------------------------------------

	Internal coordinates to be generated automatically.
	Detected frag 1 with atoms:  1 2 3 4
	---Fragment 1 Bond Connectivity---
	 1 : 2 3
	 2 : 1 4
	 3 : 1
	 4 : 2

	---Fragment 1 Geometry and Gradient---
	 O           0.0419667184       -0.0198519055       -1.3738799313
	 O           0.0419667184       -0.0198519055        1.3738801208
	 H           0.0419667184        1.8117866414       -1.5914109999
	 H          -1.3740512706       -1.1816583489        1.5914079926
	            -0.0036277679       -0.0106656190        0.0033525925
	             0.0059444816        0.0095697334       -0.0033523994
	             0.0002455539        0.0035256406        0.0061301359
	            -0.0025698843       -0.0024261521       -0.0061303293

	Previous optimization step data not found.  Starting new optimization.

	---Fragment 1 Intrafragment Coordinates---
	 - Coordinate -           - BOHR/RAD -       - ANG/DEG -
	 R(1,2)           =         2.747760	       1.454052
	 R(1,3)           =         1.844511	       0.976073
	 R(2,4)           =         1.844511	       0.976073
	 B(1,2,4)         =         1.689004	      96.772800
	 B(2,1,3)         =         1.689006	      96.772900
	 D(3,1,2,4)       =         2.257898	     129.368000

	Current energy   :      -151.5325378359

	Generating empirical Hessian (Schlegel '84) for each fragment.
	Taking RFO optimization step.
	Going to follow RFO solution 1.
	Using RFO vector 1.
	Norm of target step-size    0.14901
	Projected energy change by RFO approximation:        -0.0025309007

	Back-transformation to cartesian coordinates...
	Successfully converged to displaced geometry.

	--- Internal Coordinate Step in ANG or DEG, aJ/ANG or AJ/DEG ---
	 ---------------------------------------------------------------------------
	   Coordinate                Previous        Force       Change         New 
	   ----------                --------       ------       ------       ------
	    1 R(1,2)          =      1.454052     0.078103     0.013227     1.467279
	    2 R(1,3)          =      0.976073    -0.022864    -0.002805     0.973268
	    3 R(2,4)          =      0.976073    -0.022864    -0.002805     0.973268
	    4 B(1,2,4)        =     96.772800     0.000912     4.106955   100.879755
	    5 B(2,1,3)        =     96.772900     0.000912     4.106827   100.879727
	    6 D(3,1,2,4)      =    129.368000    -0.000008    -5.893576   123.474424
	 ---------------------------------------------------------------------------
	Successfully symmetrized geometry.

  ==> Convergence Check <==

  Measures of convergence in internal coordinates in au.
  Criteria marked as inactive (o), active & met (*), and active & unmet ( ).
  --------------------------------------------------------------------------------------------- ~
   Step     Total Energy     Delta E     MAX Force     RMS Force      MAX Disp      RMS Disp    ~
  --------------------------------------------------------------------------------------------- ~
    Convergence Criteria    1.00e-06 *    3.00e-04 *             o    1.20e-03 *             o  ~
  --------------------------------------------------------------------------------------------- ~
      1    -151.53253784   -1.52e+02      1.20e-02      8.09e-03 o    1.03e-01      5.99e-02 o  ~
  ---------------------------------------------------------------------------------------------

	Writing optimization data to binary file.
	Structure for next step:
	Cartesian Geometry (in Angstrom)
	    O     0.0539693765   0.0120778004  -0.7328517057
	    O     0.0248950226  -0.0493837418   0.7328509035
	    H     0.0080875520   0.9734659927  -0.8773477963
	    H    -0.7474450742  -0.6237208723   0.8773471074
			--------------------------
			 OPTKING Finished Execution 
			--------------------------

    Structure for next step:
    Molecular point group: c1
    Full point group: C1

    Geometry (in Angstrom), charge = 0, multiplicity = 1:

    O       
    O             1          R1
    H             1          R2      2          A2
    H             2          R3      1          A3      3          D3

    A2        =  100.8797266604
    A3        =  100.8797546316
    D3        =  123.4744241590
    R1        =    1.4672787721
    R2        =    0.9732684757
    R3        =    0.9732684753

gradient() will perform analytic gradient computation.

*** tstart() called on Ewan
*** at Mon Sep  9 17:09:31 2019

   => Loading Basis Set <=

    Name: 6-31G*
    Role: ORBITAL
    Keyword: BASIS
    atoms 1-2 entry O          line   145 file /home/snelliott/miniconda/envs/pacc-env-mini/share/psi4/basis/6-31gs.gbs 
    atoms 3-4 entry H          line    44 file /home/snelliott/miniconda/envs/pacc-env-mini/share/psi4/basis/6-31gs.gbs 


         ---------------------------------------------------------
                                   SCF
               by Justin Turney, Rob Parrish, Andy Simmonett
                          and Daniel G. A. Smith
                              RKS Reference
                        1 Threads,    953 MiB Core
         ---------------------------------------------------------

  ==> Geometry <==

    Molecular point group: c1
    Full point group: C1

    Geometry (in Angstrom), charge = 0, multiplicity = 1:

       Center              X                  Y                   Z               Mass       
    ------------   -----------------  -----------------  -----------------  -----------------
         O            0.023627974306    -0.012702568138    -0.733639399870    15.994914619570
         O            0.023627974306    -0.012702568138     0.733639372217    15.994914619570
         H            0.023627974306     0.943071951797    -0.917341856994     1.007825032230
         H           -0.773614171463    -0.539874003092     0.917342295868     1.007825032230

  Running in c1 symmetry.

  Rotational constants: A =     10.03820  B =      0.86717  C =      0.82869 [cm^-1]
  Rotational constants: A = 300937.81301  B =  25997.05807  C =  24843.58197 [MHz]
  Nuclear repulsion =   36.431916550596590

  Charge       = 0
  Multiplicity = 1
  Electrons    = 18
  Nalpha       = 9
  Nbeta        = 9

  ==> Algorithm <==

  SCF Algorithm Type is PK.
  DIIS enabled.
  MOM disabled.
  Fractional occupation disabled.
  Guess Type is READ.
  Energy threshold   = 1.00e-08
  Density threshold  = 1.00e-08
  Integral threshold = 0.00e+00

  ==> Primary Basis <==

  Basis Set: 6-31G*
    Blend: 6-31G*
    Number of shells: 16
    Number of basis function: 34
    Number of Cartesian functions: 34
    Spherical Harmonics?: false
    Max angular momentum: 2

  ==> DFT Potential <==

   => Composite Functional: B3LYP <= 

    B3LYP Hyb-GGA Exchange-Correlation Functional

    P. J. Stephens, F. J. Devlin, C. F. Chabalowski, and M. J. Frisch, J. Phys. Chem. 98, 11623 (1994)

    Deriv               =              1
    GGA                 =           TRUE
    Meta                =          FALSE

    Exchange Hybrid     =           TRUE
    MP2 Hybrid          =          FALSE

   => Exchange Functionals <=

    0.0800   Slater exchange
    0.7200         Becke 88

   => Exact (HF) Exchange <=

    0.2000               HF 

   => Correlation Functionals <=

    0.1900   Vosko, Wilk & Nusair (VWN5_RPA)
    0.8100   Lee, Yang & Parr

   => Molecular Quadrature <=

    Radial Scheme          =       TREUTLER
    Pruning Scheme         =           FLAT
    Nuclear Scheme         =       TREUTLER

    BS radius alpha        =              1
    Pruning alpha          =              1
    Radial Points          =             75
    Spherical Points       =            302
    Total Points           =          87144
    Total Blocks           =            711
    Max Points             =            255
    Max Functions          =             34

   => Loading Basis Set <=

    Name: 6-31G*
    Role: ORBITAL
    Keyword: BASIS
    atoms 1-2 entry O          line   145 file /home/snelliott/miniconda/envs/pacc-env-mini/share/psi4/basis/6-31gs.gbs 
    atoms 3-4 entry H          line    44 file /home/snelliott/miniconda/envs/pacc-env-mini/share/psi4/basis/6-31gs.gbs 

  Reading orbitals from file 180, no projection.

  ==> Pre-Iterations <==

   -------------------------------------------------------
    Irrep   Nso     Nmo     Nalpha   Nbeta   Ndocc  Nsocc
   -------------------------------------------------------
     A         34      34       0       0       0       0
   -------------------------------------------------------
    Total      34      34       9       9       9       0
   -------------------------------------------------------

  ==> Integral Setup <==

  Using in-core PK algorithm.
   Calculation information:
      Number of atoms:                   4
      Number of AO shells:              16
      Number of primitives:             38
      Number of atomic orbitals:        34
      Number of basis functions:        34

      Integral cutoff                 1.00e-12
      Number of threads:                 1

  Performing in-core PK
  Using 354620 doubles for integral storage.
  We computed 9304 shell quartets total.
  Whereas there are 9316 unique shell quartets.

  ==> DiskJK: Disk-Based J/K Matrices <==

    J tasked:                  Yes
    K tasked:                  Yes
    wK tasked:                  No
    Memory [MiB]:              633
    Schwarz Cutoff:          1E-12

    OpenMP threads:              1

  Cached 100.0% of DFT collocation blocks in 0.080 [GiB].

  Minimum eigenvalue in the overlap matrix is 1.1661884332E-02.
  Using Symmetric Orthogonalization.

  SCF Guess: Orbitals guess was supplied from a previous computation.

  ==> Iterations <==

                        Total Energy        Delta E     RMS |[F,P]|

   @RKS iter   0:  -151.53007935096272   -1.51530e+02   1.66304e-03 
   @RKS iter   1:  -151.53286631203821   -2.78696e-03   2.69745e-04 DIIS
   @RKS iter   2:  -151.53289785941558   -3.15474e-05   1.70919e-04 DIIS
   @RKS iter   3:  -151.53290453978221   -6.68037e-06   1.21089e-04 DIIS
