
    -----------------------------------------------------------------------
          Psi4: An Open-Source Ab Initio Electronic Structure Package
                               Psi4 1.3.2 release

                         Git: Rev {HEAD} ecbda83 


    R. M. Parrish, L. A. Burns, D. G. A. Smith, A. C. Simmonett,
    A. E. DePrince III, E. G. Hohenstein, U. Bozkaya, A. Yu. Sokolov,
    R. Di Remigio, R. M. Richard, J. F. Gonthier, A. M. James,
    H. R. McAlexander, A. Kumar, M. Saitow, X. Wang, B. P. Pritchard,
    P. Verma, H. F. Schaefer III, K. Patkowski, R. A. King, E. F. Valeev,
    F. A. Evangelista, J. M. Turney, T. D. Crawford, and C. D. Sherrill,
    J. Chem. Theory Comput. 13(7) pp 3185--3197 (2017).
    (doi: 10.1021/acs.jctc.7b00174)


                         Additional Contributions by
    P. Kraus, H. Kruse, M. H. Lechner, M. C. Schieber, R. A. Shaw,
    A. Alenaizan, R. Galvelis, Z. L. Glick, S. Lehtola, and J. P. Misiewicz

    -----------------------------------------------------------------------


    Psi4 started on: Monday, 09 September 2019 03:47PM

    Process ID: 7527
    Host:       Ewan
    PSIDATADIR: /home/snelliott/miniconda/envs/pacc-env-mini/share/psi4
    Memory:     500.0 MiB
    Threads:    1
    
  ==> Input File <==

--------------------------------------------------------------------------
#! 
memory 1 GB

molecule {

0 1
O  
O  1    R1 
H  1    R2  2    A2 
H  2    R3  1    A3  3    D3 
R1   =   1.454052
R2   =   0.976073
A2   =  96.772900
R3   =   0.976073
A3   =  96.772800
D3   = 129.368000
}
set basis cc-pvdz
set scf_type pk
set reference rks
set mp2_type conv
optimize('B3LYP')
--------------------------------------------------------------------------

  Memory set to 953.674 MiB by Python driver.
gradient() will perform analytic gradient computation.

*** tstart() called on Ewan
*** at Mon Sep  9 15:47:16 2019

   => Loading Basis Set <=

    Name: CC-PVDZ
    Role: ORBITAL
    Keyword: BASIS
    atoms 1-2 entry O          line   198 file /home/snelliott/miniconda/envs/pacc-env-mini/share/psi4/basis/cc-pvdz.gbs 
    atoms 3-4 entry H          line    22 file /home/snelliott/miniconda/envs/pacc-env-mini/share/psi4/basis/cc-pvdz.gbs 


         ---------------------------------------------------------
                                   SCF
               by Justin Turney, Rob Parrish, Andy Simmonett
                          and Daniel G. A. Smith
                              RKS Reference
                        1 Threads,    953 MiB Core
         ---------------------------------------------------------

  ==> Geometry <==

    Molecular point group: c1
    Full point group: C1

    Geometry (in Angstrom), charge = 0, multiplicity = 1:

       Center              X                  Y                   Z               Mass       
    ------------   -----------------  -----------------  -----------------  -----------------
         O            0.022207831006    -0.010505175973    -0.727025949863    15.994914619570
         O            0.022207831006    -0.010505175973     0.727026050137    15.994914619570
         H            0.022207831006     0.958756201227    -0.842138433970     1.007825032230
         H           -0.727116618678    -0.625306669059     0.842136842563     1.007825032230

  Running in c1 symmetry.

  Rotational constants: A =      9.67497  B =      0.89694  C =      0.84773 [cm^-1]
  Rotational constants: A = 290048.39638  B =  26889.44216  C =  25414.27196 [MHz]
  Nuclear repulsion =   36.774416520214039

  Charge       = 0
  Multiplicity = 1
  Electrons    = 18
  Nalpha       = 9
  Nbeta        = 9

  ==> Algorithm <==

  SCF Algorithm Type is PK.
  DIIS enabled.
  MOM disabled.
  Fractional occupation disabled.
  Guess Type is SAD.
  Energy threshold   = 1.00e-08
  Density threshold  = 1.00e-08
  Integral threshold = 0.00e+00

  ==> Primary Basis <==

  Basis Set: CC-PVDZ
    Blend: CC-PVDZ
    Number of shells: 18
    Number of basis function: 38
    Number of Cartesian functions: 40
    Spherical Harmonics?: true
    Max angular momentum: 2

  ==> DFT Potential <==

   => Composite Functional: B3LYP <= 

    B3LYP Hyb-GGA Exchange-Correlation Functional

    P. J. Stephens, F. J. Devlin, C. F. Chabalowski, and M. J. Frisch, J. Phys. Chem. 98, 11623 (1994)

    Deriv               =              1
    GGA                 =           TRUE
    Meta                =          FALSE

    Exchange Hybrid     =           TRUE
    MP2 Hybrid          =          FALSE

   => Exchange Functionals <=

    0.0800   Slater exchange
    0.7200         Becke 88

   => Exact (HF) Exchange <=

    0.2000               HF 

   => Correlation Functionals <=

    0.1900   Vosko, Wilk & Nusair (VWN5_RPA)
    0.8100   Lee, Yang & Parr

   => Molecular Quadrature <=

    Radial Scheme          =       TREUTLER
    Pruning Scheme         =           FLAT
    Nuclear Scheme         =       TREUTLER

    BS radius alpha        =              1
    Pruning alpha          =              1
    Radial Points          =             75
    Spherical Points       =            302
    Total Points           =          88346
    Total Blocks           =            713
    Max Points             =            256
    Max Functions          =             38

  ==> Pre-Iterations <==

   -------------------------------------------------------
    Irrep   Nso     Nmo     Nalpha   Nbeta   Ndocc  Nsocc
   -------------------------------------------------------
     A         38      38       0       0       0       0
   -------------------------------------------------------
    Total      38      38       9       9       9       0
   -------------------------------------------------------

  ==> Integral Setup <==

  Using in-core PK algorithm.
   Calculation information:
      Number of atoms:                   4
      Number of AO shells:              18
      Number of primitives:             54
      Number of atomic orbitals:        40
      Number of basis functions:        38

      Integral cutoff                 1.00e-12
      Number of threads:                 1

  Performing in-core PK
  Using 549822 doubles for integral storage.
  We computed 14706 shell quartets total.
  Whereas there are 14706 unique shell quartets.

  ==> DiskJK: Disk-Based J/K Matrices <==

    J tasked:                  Yes
    K tasked:                  Yes
    wK tasked:                  No
    Memory [MiB]:              622
    Schwarz Cutoff:          1E-12

    OpenMP threads:              1

  Cached 100.0% of DFT collocation blocks in 0.091 [GiB].

  Minimum eigenvalue in the overlap matrix is 2.4956405167E-02.
  Using Symmetric Orthogonalization.

  SCF Guess: Superposition of Atomic Densities via on-the-fly atomic UHF.

  ==> Iterations <==

                        Total Energy        Delta E     RMS |[F,P]|

   @RKS iter SAD:  -151.09762608011181   -1.51098e+02   0.00000e+00 
   @RKS iter   1:  -151.46692726642331   -3.69301e-01   1.21894e-02 DIIS
   @RKS iter   2:  -151.45001156997751    1.69157e-02   1.37086e-02 DIIS
   @RKS iter   3:  -151.54963924187877   -9.96277e-02   8.77913e-04 DIIS
   @RKS iter   4:  -151.55000166418566   -3.62422e-04   7.77978e-05 DIIS
   @RKS iter   5:  -151.55000481817189   -3.15399e-06   9.26883e-06 DIIS
   @RKS iter   6:  -151.55000485986281   -4.16909e-08   1.28317e-06 DIIS
   @RKS iter   7:  -151.55000486074661   -8.83801e-10   1.11040e-07 DIIS
   @RKS iter   8:  -151.55000486075500   -8.38440e-12   1.88954e-08 DIIS
   @RKS iter   9:  -151.55000486075502   -2.84217e-14   4.66393e-09 DIIS
  Energy and wave function converged.


  ==> Post-Iterations <==

    Orbital Energies [Eh]
    ---------------------

    Doubly Occupied:                                                      

       1A    -19.187066     2A    -19.187026     3A     -1.110601  
       4A     -0.886680     5A     -0.506150     6A     -0.493868  
       7A     -0.407667     8A     -0.325514     9A     -0.258877  

    Virtual:                                                              

      10A      0.024854    11A      0.051228    12A      0.104084  
      13A      0.573133    14A      0.581608    15A      0.845923  
      16A      0.870422    17A      0.879527    18A      0.952756  
      19A      1.016662    20A      1.064786    21A      1.204685  
      22A      1.283919    23A      1.377598    24A      1.435414  
      25A      1.668027    26A      1.737123    27A      2.063615  
      28A      2.087371    29A      2.373045    30A      2.408930  
      31A      2.592509    32A      2.897036    33A      2.897371  
      34A      3.027377    35A      3.147333    36A      3.502510  
      37A      3.519843    38A      3.830520  

    Final Occupation by Irrep:
              A 
    DOCC [     9 ]

  @RKS Final Energy:  -151.55000486075502

   => Energetics <=

    Nuclear Repulsion Energy =             36.7744165202140394
    One-Electron Energy =                -281.5382024882769656
    Two-Electron Energy =                 107.6759958946891516
    DFT Exchange-Correlation Energy =     -14.4622147873812228
    Empirical Dispersion Energy =           0.0000000000000000
    VV10 Nonlocal Energy =                  0.0000000000000000
    Total Energy =                       -151.5500048607549957

Computation Completed


Properties will be evaluated at   0.000000,   0.000000,   0.000000 [a0]

Properties computed using the SCF density matrix

  Nuclear Dipole Moment: [e a0]
     X:    -0.6606      Y:     0.3125      Z:    -0.0000

  Electronic Dipole Moment: [e a0]
     X:     0.1509      Y:    -0.0714      Z:     0.0000

  Dipole Moment: [e a0]
     X:    -0.5097      Y:     0.2411      Z:    -0.0000     Total:     0.5639

  Dipole Moment: [D]
     X:    -1.2956      Y:     0.6129      Z:    -0.0000     Total:     1.4332


*** tstop() called on Ewan at Mon Sep  9 15:47:18 2019
Module time:
	user time   =       2.11 seconds =       0.04 minutes
	system time =       0.08 seconds =       0.00 minutes
	total time  =          2 seconds =       0.03 minutes
Total time:
	user time   =       2.11 seconds =       0.04 minutes
	system time =       0.08 seconds =       0.00 minutes
	total time  =          2 seconds =       0.03 minutes

*** tstart() called on Ewan
*** at Mon Sep  9 15:47:18 2019


         ------------------------------------------------------------
                                   SCF GRAD                          
                          Rob Parrish, Justin Turney,                
                       Andy Simmonett, and Alex Sokolov              
         ------------------------------------------------------------

  ==> Geometry <==

    Molecular point group: c1
    Full point group: C1

    Geometry (in Angstrom), charge = 0, multiplicity = 1:

       Center              X                  Y                   Z               Mass       
    ------------   -----------------  -----------------  -----------------  -----------------
         O            0.022207831006    -0.010505175973    -0.727025949863    15.994914619570
         O            0.022207831006    -0.010505175973     0.727026050137    15.994914619570
         H            0.022207831006     0.958756201227    -0.842138433970     1.007825032230
         H           -0.727116618678    -0.625306669059     0.842136842563     1.007825032230

  Nuclear repulsion =   36.774416520214039

  ==> Basis Set <==

  Basis Set: CC-PVDZ
    Blend: CC-PVDZ
    Number of shells: 18
    Number of basis function: 38
    Number of Cartesian functions: 40
    Spherical Harmonics?: true
    Max angular momentum: 2

  ==> DirectJKGrad: Integral-Direct SCF Gradients <==

    Gradient:                    1
    J tasked:                  Yes
    K tasked:                  Yes
    wK tasked:                  No
    Integrals threads:           1
    Schwarz Cutoff:          0E+00

  ==> DFT Potential <==

   => Composite Functional: B3LYP <= 

    B3LYP Hyb-GGA Exchange-Correlation Functional

    P. J. Stephens, F. J. Devlin, C. F. Chabalowski, and M. J. Frisch, J. Phys. Chem. 98, 11623 (1994)

    Deriv               =              1
    GGA                 =           TRUE
    Meta                =          FALSE

    Exchange Hybrid     =           TRUE
    MP2 Hybrid          =          FALSE

   => Exchange Functionals <=

    0.0800   Slater exchange
    0.7200         Becke 88

   => Exact (HF) Exchange <=

    0.2000               HF 

   => Correlation Functionals <=

    0.1900   Vosko, Wilk & Nusair (VWN5_RPA)
    0.8100   Lee, Yang & Parr

   => Molecular Quadrature <=

    Radial Scheme          =       TREUTLER
    Pruning Scheme         =           FLAT
    Nuclear Scheme         =       TREUTLER

    BS radius alpha        =              1
    Pruning alpha          =              1
    Radial Points          =             75
    Spherical Points       =            302
    Total Points           =          88346
    Total Blocks           =            713
    Max Points             =            256
    Max Functions          =             38


  -Total Gradient:
     Atom            X                  Y                   Z
    ------   -----------------  -----------------  -----------------
       1       -0.003435264572    -0.010861829651     0.001892891006
       2        0.006218263299     0.009545357336    -0.001892692862
       3        0.000194492996     0.004016085633     0.005805961360
       4       -0.002981418444    -0.002697755937    -0.005806159675


*** tstop() called on Ewan at Mon Sep  9 15:47:19 2019
Module time:
	user time   =       0.73 seconds =       0.01 minutes
	system time =       0.01 seconds =       0.00 minutes
	total time  =          1 seconds =       0.02 minutes
Total time:
	user time   =       2.84 seconds =       0.05 minutes
	system time =       0.09 seconds =       0.00 minutes
	total time  =          3 seconds =       0.05 minutes

			-----------------------------------------
			 OPTKING 2.0: for geometry optimizations 
			  - R.A. King,  Bethel University        
			-----------------------------------------

	Internal coordinates to be generated automatically.
	Detected frag 1 with atoms:  1 2 3 4
	---Fragment 1 Bond Connectivity---
	 1 : 2 3
	 2 : 1 4
	 3 : 1
	 4 : 2

	---Fragment 1 Geometry and Gradient---
	 O           0.0419667184       -0.0198519055       -1.3738799313
	 O           0.0419667184       -0.0198519055        1.3738801208
	 H           0.0419667184        1.8117866414       -1.5914109999
	 H          -1.3740512706       -1.1816583489        1.5914079926
	            -0.0034352646       -0.0108618297        0.0018928910
	             0.0062182633        0.0095453573       -0.0018926929
	             0.0001944930        0.0040160856        0.0058059614
	            -0.0029814184       -0.0026977559       -0.0058061597

	Previous optimization step data not found.  Starting new optimization.

	---Fragment 1 Intrafragment Coordinates---
	 - Coordinate -           - BOHR/RAD -       - ANG/DEG -
	 R(1,2)           =         2.747760	       1.454052
	 R(1,3)           =         1.844511	       0.976073
	 R(2,4)           =         1.844511	       0.976073
	 B(1,2,4)         =         1.689004	      96.772800
	 B(2,1,3)         =         1.689006	      96.772900
	 D(3,1,2,4)       =         2.257898	     129.368000

	Current energy   :      -151.5500048608

	Generating empirical Hessian (Schlegel '84) for each fragment.
	Taking RFO optimization step.
	Going to follow RFO solution 1.
	Using RFO vector 1.
	Norm of target step-size    0.13371
	Projected energy change by RFO approximation:        -0.0021255340

	Back-transformation to cartesian coordinates...
	Successfully converged to displaced geometry.

	--- Internal Coordinate Step in ANG or DEG, aJ/ANG or AJ/DEG ---
	 ---------------------------------------------------------------------------
	   Coordinate                Previous        Force       Change         New 
	   ----------                --------       ------       ------       ------
	    1 R(1,2)          =      1.454052     0.063400     0.010743     1.464795
	    2 R(1,3)          =      0.976073    -0.027190    -0.003337     0.972736
	    3 R(2,4)          =      0.976073    -0.027190    -0.003337     0.972736
	    4 B(1,2,4)        =     96.772800     0.000875     3.975104   100.747904
	    5 B(2,1,3)        =     96.772900     0.000875     3.974975   100.747875
	    6 D(3,1,2,4)      =    129.368000    -0.000006    -4.891775   124.476225
	 ---------------------------------------------------------------------------
	Successfully symmetrized geometry.

  ==> Convergence Check <==

  Measures of convergence in internal coordinates in au.
  Criteria marked as inactive (o), active & met (*), and active & unmet ( ).
  --------------------------------------------------------------------------------------------- ~
   Step     Total Energy     Delta E     MAX Force     RMS Force      MAX Disp      RMS Disp    ~
  --------------------------------------------------------------------------------------------- ~
    Convergence Criteria    1.00e-06 *    3.00e-04 *             o    1.20e-03 *             o  ~
  --------------------------------------------------------------------------------------------- ~
      1    -151.55000486   -1.52e+02      1.15e-02      7.59e-03 o    8.54e-02      5.39e-02 o  ~
  ---------------------------------------------------------------------------------------------

	Writing optimization data to binary file.
	Structure for next step:
	Cartesian Geometry (in Angstrom)
	    O     0.0496258054   0.0115769947  -0.7317122192
	    O     0.0225270724  -0.0457081178   0.7317114044
	    H     0.0118587935   0.9727569027  -0.8763598559
	    H    -0.7445047944  -0.6261866006   0.8763591796
			--------------------------
			 OPTKING Finished Execution 
			--------------------------

    Structure for next step:
    Molecular point group: c1
    Full point group: C1

    Geometry (in Angstrom), charge = 0, multiplicity = 1:

    O       
    O             1          R1
    H             1          R2      2          A2
    H             2          R3      1          A3      3          D3

    A2        =  100.7478751932
    A3        =  100.7479040242
    D3        =  124.4762250280
    R1        =    1.4647950862
    R2        =    0.9727364026
    R3        =    0.9727364186

gradient() will perform analytic gradient computation.

*** tstart() called on Ewan
*** at Mon Sep  9 15:47:19 2019

   => Loading Basis Set <=

    Name: CC-PVDZ
    Role: ORBITAL
    Keyword: BASIS
    atoms 1-2 entry O          line   198 file /home/snelliott/miniconda/envs/pacc-env-mini/share/psi4/basis/cc-pvdz.gbs 
    atoms 3-4 entry H          line    22 file /home/snelliott/miniconda/envs/pacc-env-mini/share/psi4/basis/cc-pvdz.gbs 


         ---------------------------------------------------------
                                   SCF
               by Justin Turney, Rob Parrish, Andy Simmonett
                          and Daniel G. A. Smith
                              RKS Reference
                        1 Threads,    953 MiB Core
         ---------------------------------------------------------

  ==> Geometry <==

    Molecular point group: c1
    Full point group: C1

    Geometry (in Angstrom), charge = 0, multiplicity = 1:

       Center              X                  Y                   Z               Mass       
    ------------   -----------------  -----------------  -----------------  -----------------
         O            0.023348693329    -0.012290529960    -0.732397557417    15.994914619570
         O            0.023348693329    -0.012290529960     0.732397528736    15.994914619570
         H            0.023348693329     0.943381463655    -0.913800836355     1.007825032230
         H           -0.764470106917    -0.553262204755     0.913801291548     1.007825032230

  Running in c1 symmetry.

  Rotational constants: A =     10.04084  B =      0.87089  C =      0.83107 [cm^-1]
  Rotational constants: A = 301016.70911  B =  26108.67464  C =  24914.95000 [MHz]
  Nuclear repulsion =   36.485580860978011

  Charge       = 0
  Multiplicity = 1
  Electrons    = 18
  Nalpha       = 9
  Nbeta        = 9

  ==> Algorithm <==

  SCF Algorithm Type is PK.
  DIIS enabled.
  MOM disabled.
  Fractional occupation disabled.
  Guess Type is READ.
  Energy threshold   = 1.00e-08
  Density threshold  = 1.00e-08
  Integral threshold = 0.00e+00

  ==> Primary Basis <==

  Basis Set: CC-PVDZ
    Blend: CC-PVDZ
    Number of shells: 18
    Number of basis function: 38
    Number of Cartesian functions: 40
    Spherical Harmonics?: true
    Max angular momentum: 2

  ==> DFT Potential <==

   => Composite Functional: B3LYP <= 

    B3LYP Hyb-GGA Exchange-Correlation Functional

    P. J. Stephens, F. J. Devlin, C. F. Chabalowski, and M. J. Frisch, J. Phys. Chem. 98, 11623 (1994)

    Deriv               =              1
    GGA                 =           TRUE
    Meta                =          FALSE

    Exchange Hybrid     =           TRUE
    MP2 Hybrid          =          FALSE

   => Exchange Functionals <=

    0.0800   Slater exchange
    0.7200         Becke 88

   => Exact (HF) Exchange <=

    0.2000               HF 

   => Correlation Functionals <=

    0.1900   Vosko, Wilk & Nusair (VWN5_RPA)
    0.8100   Lee, Yang & Parr

   => Molecular Quadrature <=

    Radial Scheme          =       TREUTLER
    Pruning Scheme         =           FLAT
    Nuclear Scheme         =       TREUTLER

    BS radius alpha        =              1
    Pruning alpha          =              1
    Radial Points          =             75
    Spherical Points       =            302
    Total Points           =          88336
    Total Blocks           =            727
    Max Points             =            256
    Max Functions          =             38

   => Loading Basis Set <=

    Name: CC-PVDZ
    Role: ORBITAL
    Keyword: BASIS
    atoms 1-2 entry O          line   198 file /home/snelliott/miniconda/envs/pacc-env-mini/share/psi4/basis/cc-pvdz.gbs 
    atoms 3-4 entry H          line    22 file /home/snelliott/miniconda/envs/pacc-env-mini/share/psi4/basis/cc-pvdz.gbs 

  Reading orbitals from file 180, no projection.

  ==> Pre-Iterations <==

   -------------------------------------------------------
    Irrep   Nso     Nmo     Nalpha   Nbeta   Ndocc  Nsocc
   -------------------------------------------------------
     A         38      38       0       0       0       0
   -------------------------------------------------------
    Total      38      38       9       9       9       0
   -------------------------------------------------------

  ==> Integral Setup <==

  Using in-core PK algorithm.
   Calculation information:
      Number of atoms:                   4
      Number of AO shells:              18
      Number of primitives:             54
      Number of atomic orbitals:        40
      Number of basis functions:        38

      Integral cutoff                 1.00e-12
      Number of threads:                 1

  Performing in-core PK
  Using 549822 doubles for integral storage.
  We computed 14706 shell quartets total.
  Whereas there are 14706 unique shell quartets.

  ==> DiskJK: Disk-Based J/K Matrices <==

    J tasked:                  Yes
    K tasked:                  Yes
    wK tasked:                  No
    Memory [MiB]:              622
    Schwarz Cutoff:          1E-12

    OpenMP threads:              1

  Cached 100.0% of DFT collocation blocks in 0.091 [GiB].

  Minimum eigenvalue in the overlap matrix is 2.5960733415E-02.
  Using Symmetric Orthogonalization.

  SCF Guess: Orbitals guess was supplied from a previous computation.

  ==> Iterations <==

                        Total Energy        Delta E     RMS |[F,P]|

   @RKS iter   0:  -151.54878682895711   -1.51549e+02   1.59622e-03 
   @RKS iter   1:  -151.55029878584179   -1.51196e-03   4.66031e-04 DIIS
   @RKS iter   2:  -151.55037361740725   -7.48316e-05   2.41405e-04 DIIS
   @RKS iter   3:  -151.55039007399779   -1.64566e-05   1.62381e-04 DIIS
   @RKS iter   4:  -151.55040379706097   -1.37231e-05   2.17897e-05 DIIS
   @RKS iter   5:  -151.55040402335442   -2.26293e-07   8.02035e-06 DIIS
   @RKS iter   6:  -151.55040405811445   -3.47600e-08   1.14652e-06 DIIS
   @RKS iter   7:  -151.55040405902747   -9.13019e-10   1.51383e-07 DIIS
   @RKS iter   8:  -151.55040405905427   -2.68017e-11   2.34628e-08 DIIS
   @RKS iter   9:  -151.55040405905490   -6.25278e-13   3.19864e-09 DIIS
  Energy and wave function converged.


  ==> Post-Iterations <==

    Orbital Energies [Eh]
    ---------------------

    Doubly Occupied:                                                      

       1A    -19.187420     2A    -19.187382     3A     -1.102658  
       4A     -0.892054     5A     -0.516819     6A     -0.483089  
       7A     -0.403422     8A     -0.318979     9A     -0.263449  

    Virtual:                                                              

      10A      0.015136    11A      0.053647    12A      0.105318  
      13A      0.577050    14A      0.578633    15A      0.846399  
      16A      0.871453    17A      0.897227    18A      0.958409  
      19A      1.015932    20A      1.060748    21A      1.225555  
      22A      1.276543    23A      1.383100    24A      1.433165  
      25A      1.640255    26A      1.740805    27A      2.071547  
      28A      2.089554    29A      2.383371    30A      2.404818  
      31A      2.570967    32A      2.891135    33A      2.910730  
      34A      3.025789    35A      3.143651    36A      3.513236  
      37A      3.531035    38A      3.805853  

    Final Occupation by Irrep:
              A 
    DOCC [     9 ]

  @RKS Final Energy:  -151.55040405905490

   => Energetics <=

    Nuclear Repulsion Energy =             36.4855808609780112
    One-Electron Energy =                -280.9804984695572330
    Two-Electron Energy =                 107.4023246962269127
    DFT Exchange-Correlation Energy =     -14.4578111467025963
    Empirical Dispersion Energy =           0.0000000000000000
    VV10 Nonlocal Energy =                  0.0000000000000000
    Total Energy =                       -151.5504040590548982

Computation Completed


Properties will be evaluated at   0.000000,   0.000000,   0.000000 [a0]

Properties computed using the SCF density matrix

  Nuclear Dipole Moment: [e a0]
     X:    -0.6946      Y:     0.3656      Z:     0.0000

  Electronic Dipole Moment: [e a0]
     X:     0.1526      Y:    -0.0803      Z:    -0.0000

  Dipole Moment: [e a0]
     X:    -0.5419      Y:     0.2853      Z:     0.0000     Total:     0.6124

  Dipole Moment: [D]
     X:    -1.3775      Y:     0.7251      Z:     0.0000     Total:     1.5567


*** tstop() called on Ewan at Mon Sep  9 15:47:21 2019
Module time:
	user time   =       1.96 seconds =       0.03 minutes
	system time =       0.03 seconds =       0.00 minutes
	total time  =          2 seconds =       0.03 minutes
Total time:
	user time   =       4.82 seconds =       0.08 minutes
	system time =       0.12 seconds =       0.00 minutes
	total time  =          5 seconds =       0.08 minutes

*** tstart() called on Ewan
*** at Mon Sep  9 15:47:21 2019


         ------------------------------------------------------------
                                   SCF GRAD                          
                          Rob Parrish, Justin Turney,                
                       Andy Simmonett, and Alex Sokolov              
         ------------------------------------------------------------

  ==> Geometry <==

    Molecular point group: c1
    Full point group: C1

    Geometry (in Angstrom), charge = 0, multiplicity = 1:

       Center              X                  Y                   Z               Mass       
    ------------   -----------------  -----------------  -----------------  -----------------
         O            0.023348693329    -0.012290529960    -0.732397557417    15.994914619570
         O            0.023348693329    -0.012290529960     0.732397528736    15.994914619570
         H            0.023348693329     0.943381463655    -0.913800836355     1.007825032230
         H           -0.764470106917    -0.553262204755     0.913801291548     1.007825032230

  Nuclear repulsion =   36.485580860978011

  ==> Basis Set <==

  Basis Set: CC-PVDZ
    Blend: CC-PVDZ
    Number of shells: 18
    Number of basis function: 38
    Number of Cartesian functions: 40
    Spherical Harmonics?: true
    Max angular momentum: 2

  ==> DirectJKGrad: Integral-Direct SCF Gradients <==

    Gradient:                    1
    J tasked:                  Yes
    K tasked:                  Yes
    wK tasked:                  No
    Integrals threads:           1
    Schwarz Cutoff:          0E+00

  ==> DFT Potential <==

   => Composite Functional: B3LYP <= 

    B3LYP Hyb-GGA Exchange-Correlation Functional

    P. J. Stephens, F. J. Devlin, C. F. Chabalowski, and M. J. Frisch, J. Phys. Chem. 98, 11623 (1994)

    Deriv               =              1
    GGA                 =           TRUE
    Meta                =          FALSE

    Exchange Hybrid     =           TRUE
    MP2 Hybrid          =          FALSE

   => Exchange Functionals <=

    0.0800   Slater exchange
    0.7200         Becke 88

   => Exact (HF) Exchange <=

    0.2000               HF 

   => Correlation Functionals <=

    0.1900   Vosko, Wilk & Nusair (VWN5_RPA)
    0.8100   Lee, Yang & Parr

   => Molecular Quadrature <=

    Radial Scheme          =       TREUTLER
    Pruning Scheme         =           FLAT
    Nuclear Scheme         =       TREUTLER

    BS radius alpha        =              1
    Pruning alpha          =              1
    Radial Points          =             75
    Spherical Points       =            302
    Total Points           =          88336
    Total Blocks           =            727
    Max Points             =            256
    Max Functions          =             38


  -Total Gradient:
     Atom            X                  Y                   Z
    ------   -----------------  -----------------  -----------------
       1        0.001323317539     0.004649941277    -0.005183794614
       2       -0.003084175085    -0.003723043286     0.005183743129
       3        0.000553717055    -0.001080885019    -0.003333517381
       4        0.001204480221     0.000155387323     0.003333568879


*** tstop() called on Ewan at Mon Sep  9 15:47:22 2019
Module time:
	user time   =       0.73 seconds =       0.01 minutes
	system time =       0.00 seconds =       0.00 minutes
	total time  =          1 seconds =       0.02 minutes
Total time:
	user time   =       5.55 seconds =       0.09 minutes
	system time =       0.12 seconds =       0.00 minutes
	total time  =          6 seconds =       0.10 minutes

			-----------------------------------------
			 OPTKING 2.0: for geometry optimizations 
			  - R.A. King,  Bethel University        
			-----------------------------------------

	Previous internal coordinate definitions found.
	---Fragment 1 Geometry and Gradient---
	 O           0.0441226358       -0.0232257356       -1.3840307985
	 O           0.0441226358       -0.0232257356        1.3840307443
	 H           0.0441226358        1.7827325981       -1.7268333139
	 H          -1.4446391332       -1.0455140426        1.7268341741
	             0.0013233175        0.0046499413       -0.0051837946
	            -0.0030841751       -0.0037230433        0.0051837431
	             0.0005537171       -0.0010808850       -0.0033335174
	             0.0012044802        0.0001553873        0.0033335689

	---Fragment 1 Intrafragment Coordinates---
	 - Coordinate -           - BOHR/RAD -       - ANG/DEG -
	 R(1,2)           =         2.768062	       1.464795
	 R(1,3)           =         1.838205	       0.972736
	 R(2,4)           =         1.838205	       0.972736
	 B(1,2,4)         =         1.758383	     100.747904
	 B(2,1,3)         =         1.758382	     100.747875
	 D(3,1,2,4)       =         2.172520	     124.476225

	Current energy   :      -151.5504040591

	Energy change for the previous step:
		Projected    :        -0.0021255340
		Actual       :        -0.0003991983
	Energy ratio indicates iffy step: Trust radius decreased to 1.250e-01.


	Performing BFGS update.
	Previous computed or guess Hessian on step 1.
	Steps to be used in Hessian update: 1
	Taking RFO optimization step.
	Going to follow RFO solution 1.
	Using RFO vector 1.

	Determining step-restricting scale parameter for RS-RFO.
	Maximum step size allowed    0.12500

	 Iter      |step|        alpha        rfo_root  
	------------------------------------------------
	    0     0.25220       1.00000           1
	    1     0.17312       3.59506           1
	    2     0.13692       6.07935           1
	    3     0.12613       7.16119           1
	    4     0.12501       7.28610           1
	    5     0.12500       7.28747           1
	------------------------------------------------
	Norm of target step-size    0.12500
	Projected energy change by RFO approximation:         0.0008524998

	Back-transformation to cartesian coordinates...
	Successfully converged to displaced geometry.

	--- Internal Coordinate Step in ANG or DEG, aJ/ANG or AJ/DEG ---
	 ---------------------------------------------------------------------------
	   Coordinate                Previous        Force       Change         New 
	   ----------                --------       ------       ------       ------
	    1 R(1,2)          =      1.464795    -0.070197    -0.006915     1.457880
	    2 R(1,3)          =      0.972736     0.003649     0.000077     0.972814
	    3 R(2,4)          =      0.972736     0.003649     0.000077     0.972814
	    4 B(1,2,4)        =    100.747904    -0.000487    -1.253296    99.494608
	    5 B(2,1,3)        =    100.747875    -0.000487    -1.253282    99.494594
	    6 D(3,1,2,4)      =    124.476225    -0.000017    -6.935814   117.540411
	 ---------------------------------------------------------------------------
	Successfully symmetrized geometry.

  ==> Convergence Check <==

  Measures of convergence in internal coordinates in au.
  Criteria marked as inactive (o), active & met (*), and active & unmet ( ).
  ---------------------------------------------------------------------------------------------
   Step     Total Energy     Delta E     MAX Force     RMS Force      MAX Disp      RMS Disp   
  ---------------------------------------------------------------------------------------------
    Convergence Criteria    1.00e-06 *    3.00e-04 *             o    1.20e-03 *             o
  ---------------------------------------------------------------------------------------------
      2    -151.55040406   -3.99e-04      8.52e-03      5.10e-03 o    1.21e-01      5.13e-02 o  ~
  ---------------------------------------------------------------------------------------------

	Writing optimization data to binary file.
	Structure for next step:
	Cartesian Geometry (in Angstrom)
	    O     0.0468904644  -0.0237257231  -0.7289394226
	    O     0.0461016430  -0.0252244351   0.7289394896
	    H    -0.0110617821   0.9341691219  -0.8884562069
	    H    -0.7763543495  -0.5196807662   0.8884565665
			--------------------------
			 OPTKING Finished Execution 
			--------------------------

    Structure for next step:
    Molecular point group: c1
    Full point group: C1

    Geometry (in Angstrom), charge = 0, multiplicity = 1:

    O       
    O             1          R1
    H             1          R2      2          A2
    H             2          R3      1          A3      3          D3

    A2        =   99.4945935016
    A3        =   99.4946077698
    D3        =  117.5404109790
    R1        =    1.4578799017
    R2        =    0.9728137586
    R3        =    0.9728137685

gradient() will perform analytic gradient computation.

*** tstart() called on Ewan
*** at Mon Sep  9 15:47:22 2019

   => Loading Basis Set <=

    Name: CC-PVDZ
    Role: ORBITAL
    Keyword: BASIS
    atoms 1-2 entry O          line   198 file /home/snelliott/miniconda/envs/pacc-env-mini/share/psi4/basis/cc-pvdz.gbs 
    atoms 3-4 entry H          line    22 file /home/snelliott/miniconda/envs/pacc-env-mini/share/psi4/basis/cc-pvdz.gbs 


         ---------------------------------------------------------
                                   SCF
               by Justin Turney, Rob Parrish, Andy Simmonett
                          and Daniel G. A. Smith
                              RKS Reference
                        1 Threads,    953 MiB Core
         ---------------------------------------------------------

  ==> Geometry <==

    Molecular point group: c1
    Full point group: C1

    Geometry (in Angstrom), charge = 0, multiplicity = 1:

       Center              X                  Y                   Z               Mass       
    ------------   -----------------  -----------------  -----------------  -----------------
         O            0.025214177845    -0.015288176184    -0.728939957958    15.994914619570
         O            0.025214177845    -0.015288176184     0.728939943699    15.994914619570
         H            0.025214177845     0.944199173365    -0.889410002110     1.007825032230
         H           -0.825548777486    -0.458930272646     0.889410228415     1.007825032230

  Running in c1 symmetry.

  Rotational constants: A =      9.90779  B =      0.87863  C =      0.84503 [cm^-1]
  Rotational constants: A = 297027.96534  B =  26340.67421  C =  25333.28872 [MHz]
  Nuclear repulsion =   36.652933722594675

  Charge       = 0
  Multiplicity = 1
  Electrons    = 18
  Nalpha       = 9
  Nbeta        = 9

  ==> Algorithm <==

  SCF Algorithm Type is PK.
  DIIS enabled.
  MOM disabled.
  Fractional occupation disabled.
  Guess Type is READ.
  Energy threshold   = 1.00e-08
  Density threshold  = 1.00e-08
  Integral threshold = 0.00e+00

  ==> Primary Basis <==

  Basis Set: CC-PVDZ
    Blend: CC-PVDZ
    Number of shells: 18
    Number of basis function: 38
    Number of Cartesian functions: 40
    Spherical Harmonics?: true
    Max angular momentum: 2

  ==> DFT Potential <==

   => Composite Functional: B3LYP <= 

    B3LYP Hyb-GGA Exchange-Correlation Functional

    P. J. Stephens, F. J. Devlin, C. F. Chabalowski, and M. J. Frisch, J. Phys. Chem. 98, 11623 (1994)

    Deriv               =              1
    GGA                 =           TRUE
    Meta                =          FALSE

    Exchange Hybrid     =           TRUE
    MP2 Hybrid          =          FALSE

   => Exchange Functionals <=

    0.0800   Slater exchange
    0.7200         Becke 88

   => Exact (HF) Exchange <=

    0.2000               HF 

   => Correlation Functionals <=

    0.1900   Vosko, Wilk & Nusair (VWN5_RPA)
    0.8100   Lee, Yang & Parr

   => Molecular Quadrature <=

    Radial Scheme          =       TREUTLER
    Pruning Scheme         =           FLAT
    Nuclear Scheme         =       TREUTLER

    BS radius alpha        =              1
    Pruning alpha          =              1
    Radial Points          =             75
    Spherical Points       =            302
    Total Points           =          88336
    Total Blocks           =            716
    Max Points             =            256
    Max Functions          =             38

   => Loading Basis Set <=

    Name: CC-PVDZ
    Role: ORBITAL
    Keyword: BASIS
    atoms 1-2 entry O          line   198 file /home/snelliott/miniconda/envs/pacc-env-mini/share/psi4/basis/cc-pvdz.gbs 
    atoms 3-4 entry H          line    22 file /home/snelliott/miniconda/envs/pacc-env-mini/share/psi4/basis/cc-pvdz.gbs 

  Reading orbitals from file 180, no projection.

  ==> Pre-Iterations <==

   -------------------------------------------------------
    Irrep   Nso     Nmo     Nalpha   Nbeta   Ndocc  Nsocc
   -------------------------------------------------------
     A         38      38       0       0       0       0
   -------------------------------------------------------
    Total      38      38       9       9       9       0
   -------------------------------------------------------

  ==> Integral Setup <==

  Using in-core PK algorithm.
   Calculation information:
      Number of atoms:                   4
      Number of AO shells:              18
      Number of primitives:             54
      Number of atomic orbitals:        40
      Number of basis functions:        38

      Integral cutoff                 1.00e-12
      Number of threads:                 1

  Performing in-core PK
  Using 549822 doubles for integral storage.
  We computed 14706 shell quartets total.
  Whereas there are 14706 unique shell quartets.

  ==> DiskJK: Disk-Based J/K Matrices <==

    J tasked:                  Yes
    K tasked:                  Yes
    wK tasked:                  No
    Memory [MiB]:              622
    Schwarz Cutoff:          1E-12

    OpenMP threads:              1

  Cached 100.0% of DFT collocation blocks in 0.091 [GiB].

  Minimum eigenvalue in the overlap matrix is 2.5645157600E-02.
  Using Symmetric Orthogonalization.

  SCF Guess: Orbitals guess was supplied from a previous computation.

  ==> Iterations <==

                        Total Energy        Delta E     RMS |[F,P]|

   @RKS iter   0:  -151.54942296562703   -1.51549e+02   1.56628e-03 
   @RKS iter   1:  -151.55054539959400   -1.12243e-03   4.47777e-04 DIIS
   @RKS iter   2:  -151.55059100777265   -4.56082e-05   3.31832e-04 DIIS
   @RKS iter   3:  -151.55062065201162   -2.96442e-05   2.32531e-04 DIIS
   @RKS iter   4:  -151.55064874628135   -2.80943e-05   2.70976e-05 DIIS
   @RKS iter   5:  -151.55064910624327   -3.59962e-07   9.87546e-06 DIIS
   @RKS iter   6:  -151.55064916143857   -5.51953e-08   9.43452e-07 DIIS
   @RKS iter   7:  -151.55064916216571   -7.27141e-10   1.40465e-07 DIIS
   @RKS iter   8:  -151.55064916218814   -2.24247e-11   2.19064e-08 DIIS
   @RKS iter   9:  -151.55064916218868   -5.40012e-13   6.47097e-09 DIIS
  Energy and wave function converged.


  ==> Post-Iterations <==

    Orbital Energies [Eh]
    ---------------------

    Doubly Occupied:                                                      

       1A    -19.187641     2A    -19.187602     3A     -1.107367  
       4A     -0.890198     5A     -0.517960     6A     -0.483477  
       7A     -0.408202     8A     -0.313649     9A     -0.267682  

    Virtual:                                                              

      10A      0.019765    11A      0.052162    12A      0.105666  
      13A      0.576010    14A      0.581822    15A      0.847303  
      16A      0.871765    17A      0.899519    18A      0.951714  
      19A      1.015882    20A      1.058706    21A      1.217146  
      22A      1.269773    23A      1.389850    24A      1.420428  
      25A      1.657371    26A      1.725127    27A      2.075410  
      28A      2.089123    29A      2.394423    30A      2.420198  
      31A      2.555028    32A      2.883521    33A      2.916925  
      34A      3.042169    35A      3.142261    36A      3.502684  
      37A      3.533957    38A      3.815089  

    Final Occupation by Irrep:
              A 
    DOCC [     9 ]

  @RKS Final Energy:  -151.55064916218868

   => Energetics <=

    Nuclear Repulsion Energy =             36.6529337225946747
    One-Electron Energy =                -281.2966611055544490
    Two-Electron Energy =                 107.5539892360011436
    DFT Exchange-Correlation Energy =     -14.4609110152300211
    Empirical Dispersion Energy =           0.0000000000000000
    VV10 Nonlocal Energy =                  0.0000000000000000
    Total Energy =                       -151.5506491621886482

Computation Completed


Properties will be evaluated at   0.000000,   0.000000,   0.000000 [a0]

Properties computed using the SCF density matrix

  Nuclear Dipole Moment: [e a0]
     X:    -0.7500      Y:     0.4548      Z:     0.0000

  Electronic Dipole Moment: [e a0]
     X:     0.1694      Y:    -0.1027      Z:    -0.0000

  Dipole Moment: [e a0]
     X:    -0.5807      Y:     0.3521      Z:     0.0000     Total:     0.6791

  Dipole Moment: [D]
     X:    -1.4759      Y:     0.8949      Z:     0.0000     Total:     1.7260


*** tstop() called on Ewan at Mon Sep  9 15:47:24 2019
Module time:
	user time   =       1.95 seconds =       0.03 minutes
	system time =       0.02 seconds =       0.00 minutes
	total time  =          2 seconds =       0.03 minutes
Total time:
	user time   =       7.51 seconds =       0.13 minutes
	system time =       0.14 seconds =       0.00 minutes
	total time  =          8 seconds =       0.13 minutes

*** tstart() called on Ewan
*** at Mon Sep  9 15:47:24 2019


         ------------------------------------------------------------
                                   SCF GRAD                          
                          Rob Parrish, Justin Turney,                
                       Andy Simmonett, and Alex Sokolov              
         ------------------------------------------------------------

  ==> Geometry <==

    Molecular point group: c1
    Full point group: C1

    Geometry (in Angstrom), charge = 0, multiplicity = 1:

       Center              X                  Y                   Z               Mass       
    ------------   -----------------  -----------------  -----------------  -----------------
         O            0.025214177845    -0.015288176184    -0.728939957958    15.994914619570
         O            0.025214177845    -0.015288176184     0.728939943699    15.994914619570
         H            0.025214177845     0.944199173365    -0.889410002110     1.007825032230
         H           -0.825548777486    -0.458930272646     0.889410228415     1.007825032230

  Nuclear repulsion =   36.652933722594675

  ==> Basis Set <==

  Basis Set: CC-PVDZ
    Blend: CC-PVDZ
    Number of shells: 18
    Number of basis function: 38
    Number of Cartesian functions: 40
    Spherical Harmonics?: true
    Max angular momentum: 2

  ==> DirectJKGrad: Integral-Direct SCF Gradients <==

    Gradient:                    1
    J tasked:                  Yes
    K tasked:                  Yes
    wK tasked:                  No
    Integrals threads:           1
    Schwarz Cutoff:          0E+00

  ==> DFT Potential <==

   => Composite Functional: B3LYP <= 

    B3LYP Hyb-GGA Exchange-Correlation Functional

    P. J. Stephens, F. J. Devlin, C. F. Chabalowski, and M. J. Frisch, J. Phys. Chem. 98, 11623 (1994)

    Deriv               =              1
    GGA                 =           TRUE
    Meta                =          FALSE

    Exchange Hybrid     =           TRUE
    MP2 Hybrid          =          FALSE

   => Exchange Functionals <=

    0.0800   Slater exchange
    0.7200         Becke 88

   => Exact (HF) Exchange <=

    0.2000               HF 

   => Correlation Functionals <=

    0.1900   Vosko, Wilk & Nusair (VWN5_RPA)
    0.8100   Lee, Yang & Parr

   => Molecular Quadrature <=

    Radial Scheme          =       TREUTLER
    Pruning Scheme         =           FLAT
    Nuclear Scheme         =       TREUTLER

    BS radius alpha        =              1
    Pruning alpha          =              1
    Radial Points          =             75
    Spherical Points       =            302
    Total Points           =          88336
    Total Blocks           =            716
    Max Points             =            256
    Max Functions          =             38


  -Total Gradient:
     Atom            X                  Y                   Z
    ------   -----------------  -----------------  -----------------
       1       -0.000184298413    -0.000080578366    -0.002629259302
       2       -0.000013779707     0.000200681517     0.002629232172
       3       -0.000092567197    -0.000369915449     0.000537397526
       4        0.000285196897     0.000253115773    -0.000537370417


*** tstop() called on Ewan at Mon Sep  9 15:47:25 2019
Module time:
	user time   =       0.71 seconds =       0.01 minutes
	system time =       0.02 seconds =       0.00 minutes
	total time  =          1 seconds =       0.02 minutes
Total time:
	user time   =       8.22 seconds =       0.14 minutes
	system time =       0.16 seconds =       0.00 minutes
	total time  =          9 seconds =       0.15 minutes

			-----------------------------------------
			 OPTKING 2.0: for geometry optimizations 
			  - R.A. King,  Bethel University        
			-----------------------------------------

	Previous internal coordinate definitions found.
	---Fragment 1 Geometry and Gradient---
	 O           0.0476478906       -0.0288904659       -1.3774968824
	 O           0.0476478906       -0.0288904659        1.3774968555
	 H           0.0476478906        1.7842778455       -1.6807413172
	 H          -1.5600610927       -0.8672525260        1.6807417449
	            -0.0001842984       -0.0000805784       -0.0026292593
	            -0.0000137797        0.0002006815        0.0026292322
	            -0.0000925672       -0.0003699154        0.0005373975
	             0.0002851969        0.0002531158       -0.0005373704

	---Fragment 1 Intrafragment Coordinates---
	 - Coordinate -           - BOHR/RAD -       - ANG/DEG -
	 R(1,2)           =         2.754994	       1.457880
	 R(1,3)           =         1.838352	       0.972814
	 R(2,4)           =         1.838352	       0.972814
	 B(1,2,4)         =         1.736508	      99.494608
	 B(2,1,3)         =         1.736508	      99.494594
	 D(3,1,2,4)       =         2.051467	     117.540411

	Current energy   :      -151.5506491622

	Energy change for the previous step:
		Projected    :         0.0008524998
		Actual       :        -0.0002451031

	Performing BFGS update.
	Previous computed or guess Hessian on step 1.
	Steps to be used in Hessian update: 2 1
	Taking RFO optimization step.
	Going to follow RFO solution 1.
	Using RFO vector 1.
	Norm of target step-size    0.03374
	Projected energy change by RFO approximation:        -0.0001839261

	Back-transformation to cartesian coordinates...
	Successfully converged to displaced geometry.

	--- Internal Coordinate Step in ANG or DEG, aJ/ANG or AJ/DEG ---
	 ---------------------------------------------------------------------------
	   Coordinate                Previous        Force       Change         New 
	   ----------                --------       ------       ------       ------
	    1 R(1,2)          =      1.457880    -0.017224    -0.003654     1.454226
	    2 R(1,3)          =      0.972814     0.003735     0.000239     0.973053
	    3 R(2,4)          =      0.972814     0.003735     0.000239     0.973053
	    4 B(1,2,4)        =     99.494608     0.000066     0.302751    99.797359
	    5 B(2,1,3)        =     99.494594     0.000066     0.302762    99.797356
	    6 D(3,1,2,4)      =    117.540411     0.000003     1.840084   119.380495
	 ---------------------------------------------------------------------------
	Successfully symmetrized geometry.

  ==> Convergence Check <==

  Measures of convergence in internal coordinates in au.
  Criteria marked as inactive (o), active & met (*), and active & unmet ( ).
  ---------------------------------------------------------------------------------------------
   Step     Total Energy     Delta E     MAX Force     RMS Force      MAX Disp      RMS Disp   
  ---------------------------------------------------------------------------------------------
    Convergence Criteria    1.00e-06 *    3.00e-04 *             o    1.20e-03 *             o
  ---------------------------------------------------------------------------------------------
      3    -151.55064916   -2.45e-04      2.09e-03      1.02e-03 o    3.21e-02      1.38e-02 o  ~
  ---------------------------------------------------------------------------------------------

	Writing optimization data to binary file.
	Structure for next step:
	Cartesian Geometry (in Angstrom)
	    O     0.0186970971  -0.0129654907  -0.7271116676
	    O     0.0201413974  -0.0105835556   0.7271117298
	    H     0.0339284036   0.9455001961  -0.8942756297
	    H    -0.8226731392  -0.4672586033   0.8942757795
			--------------------------
			 OPTKING Finished Execution 
			--------------------------

    Structure for next step:
    Molecular point group: c1
    Full point group: C1

    Geometry (in Angstrom), charge = 0, multiplicity = 1:

    O       
    O             1          R1
    H             1          R2      2          A2
    H             2          R3      1          A3      3          D3

    A2        =   99.7973555747
    A3        =   99.7973588895
    D3        =  119.3804954093
    R1        =    1.4542260711
    R2        =    0.9730530628
    R3        =    0.9730530660

gradient() will perform analytic gradient computation.

*** tstart() called on Ewan
*** at Mon Sep  9 15:47:25 2019

   => Loading Basis Set <=

    Name: CC-PVDZ
    Role: ORBITAL
    Keyword: BASIS
    atoms 1-2 entry O          line   198 file /home/snelliott/miniconda/envs/pacc-env-mini/share/psi4/basis/cc-pvdz.gbs 
    atoms 3-4 entry H          line    22 file /home/snelliott/miniconda/envs/pacc-env-mini/share/psi4/basis/cc-pvdz.gbs 


         ---------------------------------------------------------
                                   SCF
               by Justin Turney, Rob Parrish, Andy Simmonett
                          and Daniel G. A. Smith
                              RKS Reference
                        1 Threads,    953 MiB Core
         ---------------------------------------------------------

  ==> Geometry <==

    Molecular point group: c1
    Full point group: C1

    Geometry (in Angstrom), charge = 0, multiplicity = 1:

       Center              X                  Y                   Z               Mass       
    ------------   -----------------  -----------------  -----------------  -----------------
         O            0.024762830540    -0.014475884700    -0.727113037197    15.994914619570
         O            0.024762830540    -0.014475884700     0.727113033877    15.994914619570
         H            0.024762830540     0.944385932134    -0.892691656612     1.007825032230
         H           -0.810771011652    -0.484900342035     0.892691709314     1.007825032230

  Running in c1 symmetry.

  Rotational constants: A =      9.93524  B =      0.88299  C =      0.84710 [cm^-1]
  Rotational constants: A = 297851.11844  B =  26471.27281  C =  25395.55867 [MHz]
  Nuclear repulsion =   36.705603459188090

  Charge       = 0
  Multiplicity = 1
  Electrons    = 18
  Nalpha       = 9
  Nbeta        = 9

  ==> Algorithm <==

  SCF Algorithm Type is PK.
  DIIS enabled.
  MOM disabled.
  Fractional occupation disabled.
  Guess Type is READ.
  Energy threshold   = 1.00e-08
  Density threshold  = 1.00e-08
  Integral threshold = 0.00e+00

  ==> Primary Basis <==

  Basis Set: CC-PVDZ
    Blend: CC-PVDZ
    Number of shells: 18
    Number of basis function: 38
    Number of Cartesian functions: 40
    Spherical Harmonics?: true
    Max angular momentum: 2

  ==> DFT Potential <==

   => Composite Functional: B3LYP <= 

    B3LYP Hyb-GGA Exchange-Correlation Functional

    P. J. Stephens, F. J. Devlin, C. F. Chabalowski, and M. J. Frisch, J. Phys. Chem. 98, 11623 (1994)

    Deriv               =              1
    GGA                 =           TRUE
    Meta                =          FALSE

    Exchange Hybrid     =           TRUE
    MP2 Hybrid          =          FALSE

   => Exchange Functionals <=

    0.0800   Slater exchange
    0.7200         Becke 88

   => Exact (HF) Exchange <=

    0.2000               HF 

   => Correlation Functionals <=

    0.1900   Vosko, Wilk & Nusair (VWN5_RPA)
    0.8100   Lee, Yang & Parr

   => Molecular Quadrature <=

    Radial Scheme          =       TREUTLER
    Pruning Scheme         =           FLAT
    Nuclear Scheme         =       TREUTLER

    BS radius alpha        =              1
    Pruning alpha          =              1
    Radial Points          =             75
    Spherical Points       =            302
    Total Points           =          88334
    Total Blocks           =            721
    Max Points             =            256
    Max Functions          =             38

   => Loading Basis Set <=

    Name: CC-PVDZ
    Role: ORBITAL
    Keyword: BASIS
    atoms 1-2 entry O          line   198 file /home/snelliott/miniconda/envs/pacc-env-mini/share/psi4/basis/cc-pvdz.gbs 
    atoms 3-4 entry H          line    22 file /home/snelliott/miniconda/envs/pacc-env-mini/share/psi4/basis/cc-pvdz.gbs 

  Reading orbitals from file 180, no projection.

  ==> Pre-Iterations <==

   -------------------------------------------------------
    Irrep   Nso     Nmo     Nalpha   Nbeta   Ndocc  Nsocc
   -------------------------------------------------------
     A         38      38       0       0       0       0
   -------------------------------------------------------
    Total      38      38       9       9       9       0
   -------------------------------------------------------

  ==> Integral Setup <==

  Using in-core PK algorithm.
   Calculation information:
      Number of atoms:                   4
      Number of AO shells:              18
      Number of primitives:             54
      Number of atomic orbitals:        40
      Number of basis functions:        38

      Integral cutoff                 1.00e-12
      Number of threads:                 1

  Performing in-core PK
  Using 549822 doubles for integral storage.
  We computed 14706 shell quartets total.
  Whereas there are 14706 unique shell quartets.

  ==> DiskJK: Disk-Based J/K Matrices <==

    J tasked:                  Yes
    K tasked:                  Yes
    wK tasked:                  No
    Memory [MiB]:              622
    Schwarz Cutoff:          1E-12

    OpenMP threads:              1

  Cached 100.0% of DFT collocation blocks in 0.091 [GiB].

  Minimum eigenvalue in the overlap matrix is 2.5439383154E-02.
  Using Symmetric Orthogonalization.

  SCF Guess: Orbitals guess was supplied from a previous computation.

  ==> Iterations <==

                        Total Energy        Delta E     RMS |[F,P]|

   @RKS iter   0:  -151.55216048205449   -1.51552e+02   4.57075e-04 
   @RKS iter   1:  -151.55065519302102    1.50529e-03   1.13326e-04 DIIS
   @RKS iter   2:  -151.55066036219847   -5.16918e-06   5.25701e-05 DIIS
   @RKS iter   3:  -151.55066078931438   -4.27116e-07   4.32452e-05 DIIS
   @RKS iter   4:  -151.55066175801448   -9.68700e-07   4.78306e-06 DIIS
   @RKS iter   5:  -151.55066177123439   -1.32199e-08   1.18910e-06 DIIS
   @RKS iter   6:  -151.55066177198586   -7.51470e-10   3.79499e-07 DIIS
   @RKS iter   7:  -151.55066177207073   -8.48672e-11   3.87552e-08 DIIS
   @RKS iter   8:  -151.55066177207223   -1.50635e-12   6.05229e-09 DIIS
  Energy and wave function converged.


  ==> Post-Iterations <==

    Orbital Energies [Eh]
    ---------------------

    Doubly Occupied:                                                      

       1A    -19.187223     2A    -19.187184     3A     -1.108261  
       4A     -0.889598     5A     -0.518404     6A     -0.484118  
       7A     -0.407689     8A     -0.314676     9A     -0.265747  

    Virtual:                                                              

      10A      0.021483    11A      0.052517    12A      0.106364  
      13A      0.576158    14A      0.581136    15A      0.847020  
      16A      0.872232    17A      0.897549    18A      0.953182  
      19A      1.016286    20A      1.058947    21A      1.217894  
      22A      1.271551    23A      1.388690    24A      1.424247  
      25A      1.655435    26A      1.729096    27A      2.075352  
      28A      2.089275    29A      2.392241    30A      2.415817  
      31A      2.556608    32A      2.884641    33A      2.915441  
      34A      3.043918    35A      3.147991    36A      3.506527  
      37A      3.532031    38A      3.818044  

    Final Occupation by Irrep:
              A 
    DOCC [     9 ]

  @RKS Final Energy:  -151.55066177207223

   => Energetics <=

    Nuclear Repulsion Energy =             36.7056034591880902
    One-Electron Energy =                -281.4030786176605261
    Two-Electron Energy =                 107.6088040284398204
    DFT Exchange-Correlation Energy =     -14.4619906420396553
    Empirical Dispersion Energy =           0.0000000000000000
    VV10 Nonlocal Energy =                  0.0000000000000000
    Total Energy =                       -151.5506617720722602

Computation Completed


Properties will be evaluated at   0.000000,   0.000000,   0.000000 [a0]

Properties computed using the SCF density matrix

  Nuclear Dipole Moment: [e a0]
     X:    -0.7366      Y:     0.4306      Z:     0.0000

  Electronic Dipole Moment: [e a0]
     X:     0.1654      Y:    -0.0967      Z:    -0.0000

  Dipole Moment: [e a0]
     X:    -0.5712      Y:     0.3339      Z:     0.0000     Total:     0.6616

  Dipole Moment: [D]
     X:    -1.4519      Y:     0.8487      Z:     0.0000     Total:     1.6817


*** tstop() called on Ewan at Mon Sep  9 15:47:26 2019
Module time:
	user time   =       1.79 seconds =       0.03 minutes
	system time =       0.04 seconds =       0.00 minutes
	total time  =          1 seconds =       0.02 minutes
Total time:
	user time   =      10.01 seconds =       0.17 minutes
	system time =       0.20 seconds =       0.00 minutes
	total time  =         10 seconds =       0.17 minutes

*** tstart() called on Ewan
*** at Mon Sep  9 15:47:26 2019


         ------------------------------------------------------------
                                   SCF GRAD                          
                          Rob Parrish, Justin Turney,                
                       Andy Simmonett, and Alex Sokolov              
         ------------------------------------------------------------

  ==> Geometry <==

    Molecular point group: c1
    Full point group: C1

    Geometry (in Angstrom), charge = 0, multiplicity = 1:

       Center              X                  Y                   Z               Mass       
    ------------   -----------------  -----------------  -----------------  -----------------
         O            0.024762830540    -0.014475884700    -0.727113037197    15.994914619570
         O            0.024762830540    -0.014475884700     0.727113033877    15.994914619570
         H            0.024762830540     0.944385932134    -0.892691656612     1.007825032230
         H           -0.810771011652    -0.484900342035     0.892691709314     1.007825032230

  Nuclear repulsion =   36.705603459188090

  ==> Basis Set <==

  Basis Set: CC-PVDZ
    Blend: CC-PVDZ
    Number of shells: 18
    Number of basis function: 38
    Number of Cartesian functions: 40
    Spherical Harmonics?: true
    Max angular momentum: 2

  ==> DirectJKGrad: Integral-Direct SCF Gradients <==

    Gradient:                    1
    J tasked:                  Yes
    K tasked:                  Yes
    wK tasked:                  No
    Integrals threads:           1
    Schwarz Cutoff:          0E+00

  ==> DFT Potential <==

   => Composite Functional: B3LYP <= 

    B3LYP Hyb-GGA Exchange-Correlation Functional

    P. J. Stephens, F. J. Devlin, C. F. Chabalowski, and M. J. Frisch, J. Phys. Chem. 98, 11623 (1994)

    Deriv               =              1
    GGA                 =           TRUE
    Meta                =          FALSE

    Exchange Hybrid     =           TRUE
    MP2 Hybrid          =          FALSE

   => Exchange Functionals <=

    0.0800   Slater exchange
    0.7200         Becke 88

   => Exact (HF) Exchange <=

    0.2000               HF 

   => Correlation Functionals <=

    0.1900   Vosko, Wilk & Nusair (VWN5_RPA)
    0.8100   Lee, Yang & Parr

   => Molecular Quadrature <=

    Radial Scheme          =       TREUTLER
    Pruning Scheme         =           FLAT
    Nuclear Scheme         =       TREUTLER

    BS radius alpha        =              1
    Pruning alpha          =              1
    Radial Points          =             75
    Spherical Points       =            302
    Total Points           =          88334
    Total Blocks           =            721
    Max Points             =            256
    Max Functions          =             38


  -Total Gradient:
     Atom            X                  Y                   Z
    ------   -----------------  -----------------  -----------------
       1       -0.000037122326     0.000284557911    -0.000532788722
       2       -0.000266168706    -0.000107258688     0.000532784529
       3        0.000101683220    -0.000162532332    -0.000103060024
       4        0.000191512144    -0.000008865170     0.000103064216


*** tstop() called on Ewan at Mon Sep  9 15:47:27 2019
Module time:
	user time   =       0.73 seconds =       0.01 minutes
	system time =       0.00 seconds =       0.00 minutes
	total time  =          1 seconds =       0.02 minutes
Total time:
	user time   =      10.74 seconds =       0.18 minutes
	system time =       0.20 seconds =       0.00 minutes
	total time  =         11 seconds =       0.18 minutes

			-----------------------------------------
			 OPTKING 2.0: for geometry optimizations 
			  - R.A. King,  Bethel University        
			-----------------------------------------

	Previous internal coordinate definitions found.
	---Fragment 1 Geometry and Gradient---
	 O           0.0467949678       -0.0273554575       -1.3740445026
	 O           0.0467949678       -0.0273554575        1.3740444963
	 H           0.0467949678        1.7846307685       -1.6869427455
	 H          -1.5321351625       -0.9163288446        1.6869428451
	            -0.0000371223        0.0002845579       -0.0005327887
	            -0.0002661687       -0.0001072587        0.0005327845
	             0.0001016832       -0.0001625323       -0.0001030600
	             0.0001915121       -0.0000088652        0.0001030642

	---Fragment 1 Intrafragment Coordinates---
	 - Coordinate -           - BOHR/RAD -       - ANG/DEG -
	 R(1,2)           =         2.748089	       1.454226
	 R(1,3)           =         1.838804	       0.973053
	 R(2,4)           =         1.838804	       0.973053
	 B(1,2,4)         =         1.741792	      99.797359
	 B(2,1,3)         =         1.741792	      99.797356
	 D(3,1,2,4)       =         2.083583	     119.380495

	Current energy   :      -151.5506617721

	Energy change for the previous step:
		Projected    :        -0.0001839261
		Actual       :        -0.0000126099
	Energy ratio indicates iffy step: Trust radius decreased to 3.125e-02.


	Performing BFGS update.
	Previous computed or guess Hessian on step 1.
	Steps to be used in Hessian update: 3 2
	Taking RFO optimization step.
	Going to follow RFO solution 1.
	Using RFO vector 1.

	Determining step-restricting scale parameter for RS-RFO.
	Maximum step size allowed    0.03125

	 Iter      |step|        alpha        rfo_root  
	------------------------------------------------
	    0     0.03387       1.00000           1
	    1     0.03156      56.16711           1
	    2     0.03126      64.69216           1
	------------------------------------------------
	Norm of target step-size    0.03126
	Projected energy change by RFO approximation:         0.0000385489

	Back-transformation to cartesian coordinates...
	Successfully converged to displaced geometry.

	--- Internal Coordinate Step in ANG or DEG, aJ/ANG or AJ/DEG ---
	 ---------------------------------------------------------------------------
	   Coordinate                Previous        Force       Change         New 
	   ----------                --------       ------       ------       ------
	    1 R(1,2)          =      1.454226    -0.005239    -0.001607     1.452619
	    2 R(1,3)          =      0.973053     0.001188     0.000229     0.973282
	    3 R(2,4)          =      0.973053     0.001188     0.000229     0.973282
	    4 B(1,2,4)        =     99.797359    -0.000018     0.052906    99.850265
	    5 B(2,1,3)        =     99.797356    -0.000018     0.052911    99.850267
	    6 D(3,1,2,4)      =    119.380495    -0.000003    -1.779885   117.600610
	 ---------------------------------------------------------------------------
	Successfully symmetrized geometry.

  ==> Convergence Check <==

  Measures of convergence in internal coordinates in au.
  Criteria marked as inactive (o), active & met (*), and active & unmet ( ).
  ---------------------------------------------------------------------------------------------
   Step     Total Energy     Delta E     MAX Force     RMS Force      MAX Disp      RMS Disp   
  ---------------------------------------------------------------------------------------------
    Convergence Criteria    1.00e-06 *    3.00e-04 *             o    1.20e-03 *             o
  ---------------------------------------------------------------------------------------------
      4    -151.55066177   -1.26e-05      6.36e-04      3.15e-04 o    3.11e-02      1.28e-02 o  ~
  ---------------------------------------------------------------------------------------------

	Writing optimization data to binary file.
	Structure for next step:
	Cartesian Geometry (in Angstrom)
	    O     0.0315552652  -0.0155740777  -0.7263051259
	    O     0.0290522090  -0.0198559135   0.7263051557
	    H     0.0169457893   0.9437314248  -0.8900068127
	    H    -0.8140357807  -0.4777676146   0.8900068323
			--------------------------
			 OPTKING Finished Execution 
			--------------------------

    Structure for next step:
    Molecular point group: c1
    Full point group: C1

    Geometry (in Angstrom), charge = 0, multiplicity = 1:

    O       
    O             1          R1
    H             1          R2      2          A2
    H             2          R3      1          A3      3          D3

    A2        =   99.8502665384
    A3        =   99.8502650751
    D3        =  117.6006102936
    R1        =    1.4526187546
    R2        =    0.9732824532
    R3        =    0.9732824517

gradient() will perform analytic gradient computation.

*** tstart() called on Ewan
*** at Mon Sep  9 15:47:27 2019

   => Loading Basis Set <=

    Name: CC-PVDZ
    Role: ORBITAL
    Keyword: BASIS
    atoms 1-2 entry O          line   198 file /home/snelliott/miniconda/envs/pacc-env-mini/share/psi4/basis/cc-pvdz.gbs 
    atoms 3-4 entry H          line    22 file /home/snelliott/miniconda/envs/pacc-env-mini/share/psi4/basis/cc-pvdz.gbs 


         ---------------------------------------------------------
                                   SCF
               by Justin Turney, Rob Parrish, Andy Simmonett
                          and Daniel G. A. Smith
                              RKS Reference
                        1 Threads,    953 MiB Core
         ---------------------------------------------------------

  ==> Geometry <==

    Molecular point group: c1
    Full point group: C1

    Geometry (in Angstrom), charge = 0, multiplicity = 1:

       Center              X                  Y                   Z               Mass       
    ------------   -----------------  -----------------  -----------------  -----------------
         O            0.025185830212    -0.015252897536    -0.726309376584    15.994914619570
         O            0.025185830212    -0.015252897536     0.726309378050    15.994914619570
         H            0.025185830212     0.943681612229    -0.892812648613     1.007825032230
         H           -0.824620634820    -0.459532507001     0.892812625339     1.007825032230

  Running in c1 symmetry.

  Rotational constants: A =      9.92954  B =      0.88369  C =      0.84975 [cm^-1]
  Rotational constants: A = 297680.15239  B =  26492.44639  C =  25474.95613 [MHz]
  Nuclear repulsion =   36.731539891772400

  Charge       = 0
  Multiplicity = 1
  Electrons    = 18
  Nalpha       = 9
  Nbeta        = 9

  ==> Algorithm <==

  SCF Algorithm Type is PK.
  DIIS enabled.
  MOM disabled.
  Fractional occupation disabled.
  Guess Type is READ.
  Energy threshold   = 1.00e-08
  Density threshold  = 1.00e-08
  Integral threshold = 0.00e+00

  ==> Primary Basis <==

  Basis Set: CC-PVDZ
    Blend: CC-PVDZ
    Number of shells: 18
    Number of basis function: 38
    Number of Cartesian functions: 40
    Spherical Harmonics?: true
    Max angular momentum: 2

  ==> DFT Potential <==

   => Composite Functional: B3LYP <= 

    B3LYP Hyb-GGA Exchange-Correlation Functional

    P. J. Stephens, F. J. Devlin, C. F. Chabalowski, and M. J. Frisch, J. Phys. Chem. 98, 11623 (1994)

    Deriv               =              1
    GGA                 =           TRUE
    Meta                =          FALSE

    Exchange Hybrid     =           TRUE
    MP2 Hybrid          =          FALSE

   => Exchange Functionals <=

    0.0800   Slater exchange
    0.7200         Becke 88

   => Exact (HF) Exchange <=

    0.2000               HF 

   => Correlation Functionals <=

    0.1900   Vosko, Wilk & Nusair (VWN5_RPA)
    0.8100   Lee, Yang & Parr

   => Molecular Quadrature <=

    Radial Scheme          =       TREUTLER
    Pruning Scheme         =           FLAT
    Nuclear Scheme         =       TREUTLER

    BS radius alpha        =              1
    Pruning alpha          =              1
    Radial Points          =             75
    Spherical Points       =            302
    Total Points           =          88336
    Total Blocks           =            720
    Max Points             =            256
    Max Functions          =             38

   => Loading Basis Set <=

    Name: CC-PVDZ
    Role: ORBITAL
    Keyword: BASIS
    atoms 1-2 entry O          line   198 file /home/snelliott/miniconda/envs/pacc-env-mini/share/psi4/basis/cc-pvdz.gbs 
    atoms 3-4 entry H          line    22 file /home/snelliott/miniconda/envs/pacc-env-mini/share/psi4/basis/cc-pvdz.gbs 

  Reading orbitals from file 180, no projection.

  ==> Pre-Iterations <==

   -------------------------------------------------------
    Irrep   Nso     Nmo     Nalpha   Nbeta   Ndocc  Nsocc
   -------------------------------------------------------
     A         38      38       0       0       0       0
   -------------------------------------------------------
    Total      38      38       9       9       9       0
   -------------------------------------------------------

  ==> Integral Setup <==

  Using in-core PK algorithm.
   Calculation information:
      Number of atoms:                   4
      Number of AO shells:              18
      Number of primitives:             54
      Number of atomic orbitals:        40
      Number of basis functions:        38

      Integral cutoff                 1.00e-12
      Number of threads:                 1

  Performing in-core PK
  Using 549822 doubles for integral storage.
  We computed 14706 shell quartets total.
  Whereas there are 14706 unique shell quartets.

  ==> DiskJK: Disk-Based J/K Matrices <==

    J tasked:                  Yes
    K tasked:                  Yes
    wK tasked:                  No
    Memory [MiB]:              622
    Schwarz Cutoff:          1E-12

    OpenMP threads:              1

  Cached 100.0% of DFT collocation blocks in 0.091 [GiB].

  Minimum eigenvalue in the overlap matrix is 2.5409271478E-02.
  Using Symmetric Orthogonalization.

  SCF Guess: Orbitals guess was supplied from a previous computation.

  ==> Iterations <==

                        Total Energy        Delta E     RMS |[F,P]|

   @RKS iter   0:  -151.55086506520087   -1.51551e+02   3.97822e-04 
   @RKS iter   1:  -151.55065986308355    2.05202e-04   1.03458e-04 DIIS
   @RKS iter   2:  -151.55066466937939   -4.80630e-06   3.30383e-05 DIIS
   @RKS iter   3:  -151.55066513360345   -4.64224e-07   1.36284e-05 DIIS
   @RKS iter   4:  -151.55066520571529   -7.21118e-08   7.53212e-06 DIIS
   @RKS iter   5:  -151.55066523457072   -2.88554e-08   1.57985e-06 DIIS
   @RKS iter   6:  -151.55066523590412   -1.33340e-09   2.69552e-07 DIIS
   @RKS iter   7:  -151.55066523595102   -4.68958e-11   3.07852e-08 DIIS
   @RKS iter   8:  -151.55066523595181   -7.95808e-13   5.02179e-09 DIIS
  Energy and wave function converged.


  ==> Post-Iterations <==

    Orbital Energies [Eh]
    ---------------------

    Doubly Occupied:                                                      

       1A    -19.187248     2A    -19.187208     3A     -1.108946  
       4A     -0.889276     5A     -0.519535     6A     -0.483415  
       7A     -0.408415     8A     -0.312965     9A     -0.266853  

    Virtual:                                                              

      10A      0.022184    11A      0.052245    12A      0.106634  
      13A      0.575807    14A      0.581271    15A      0.847263  
      16A      0.872424    17A      0.899299    18A      0.952187  
      19A      1.016204    20A      1.058007    21A      1.217973  
      22A      1.269688    23A      1.390378    24A      1.421521  
      25A      1.656974    26A      1.726760    27A      2.076000  
      28A      2.088410    29A      2.395311    30A      2.418982  
      31A      2.551098    32A      2.881915    33A      2.917228  
      34A      3.048308    35A      3.147674    36A      3.505075  
      37A      3.533275    38A      3.818596  

    Final Occupation by Irrep:
              A 
    DOCC [     9 ]

  @RKS Final Energy:  -151.55066523595181

   => Energetics <=

    Nuclear Repulsion Energy =             36.7315398917723996
    One-Electron Energy =                -281.4528101046008715
    Two-Electron Energy =                 107.6329527024671222
    DFT Exchange-Correlation Energy =     -14.4623477255904671
    Empirical Dispersion Energy =           0.0000000000000000
    VV10 Nonlocal Energy =                  0.0000000000000000
    Total Energy =                       -151.5506652359518114

Computation Completed


Properties will be evaluated at   0.000000,   0.000000,   0.000000 [a0]

Properties computed using the SCF density matrix

  Nuclear Dipole Moment: [e a0]
     X:    -0.7492      Y:     0.4537      Z:    -0.0000

  Electronic Dipole Moment: [e a0]
     X:     0.1689      Y:    -0.1023      Z:    -0.0000

  Dipole Moment: [e a0]
     X:    -0.5803      Y:     0.3515      Z:    -0.0000     Total:     0.6785

  Dipole Moment: [D]
     X:    -1.4751      Y:     0.8933      Z:    -0.0000     Total:     1.7245


*** tstop() called on Ewan at Mon Sep  9 15:47:29 2019
Module time:
	user time   =       1.84 seconds =       0.03 minutes
	system time =       0.02 seconds =       0.00 minutes
	total time  =          2 seconds =       0.03 minutes
Total time:
	user time   =      12.58 seconds =       0.21 minutes
	system time =       0.22 seconds =       0.00 minutes
	total time  =         13 seconds =       0.22 minutes

*** tstart() called on Ewan
*** at Mon Sep  9 15:47:29 2019


         ------------------------------------------------------------
                                   SCF GRAD                          
                          Rob Parrish, Justin Turney,                
                       Andy Simmonett, and Alex Sokolov              
         ------------------------------------------------------------

  ==> Geometry <==

    Molecular point group: c1
    Full point group: C1

    Geometry (in Angstrom), charge = 0, multiplicity = 1:

       Center              X                  Y                   Z               Mass       
    ------------   -----------------  -----------------  -----------------  -----------------
         O            0.025185830212    -0.015252897536    -0.726309376584    15.994914619570
         O            0.025185830212    -0.015252897536     0.726309378050    15.994914619570
[...]
  ---------------------------------------------------------------------------------------------
    Convergence Criteria    1.00e-06 *    3.00e-04 *             o    1.20e-03 *             o
  ---------------------------------------------------------------------------------------------
      5    -151.55066524   -3.46e-06      1.10e-04 *    5.17e-05 o    2.10e-03      8.72e-04 o  ~
  ---------------------------------------------------------------------------------------------

	Writing optimization data to binary file.
	Structure for next step:
	Cartesian Geometry (in Angstrom)
	    O     0.0247426278  -0.0151502866  -0.7264096824
	    O     0.0248895649  -0.0149076747   0.7264096921
	    H     0.0257337824   0.9437519682  -0.8930615449
	    H    -0.8244291164  -0.4600506985   0.8930615133
			--------------------------
			 OPTKING Finished Execution 
			--------------------------

    Structure for next step:
    Molecular point group: c1
    Full point group: C1

    Geometry (in Angstrom), charge = 0, multiplicity = 1:

    O       
    O             1          R1
    H             1          R2      2          A2
    H             2          R3      1          A3      3          D3

    A2        =   99.8496305509
    A3        =   99.8496277903
    D3        =  117.7210654347
    R1        =    1.4528194079
    R2        =    0.9732766140
    R3        =    0.9732766159

gradient() will perform analytic gradient computation.

*** tstart() called on Ewan
*** at Mon Sep  9 15:47:30 2019

   => Loading Basis Set <=

    Name: CC-PVDZ
    Role: ORBITAL
    Keyword: BASIS
    atoms 1-2 entry O          line   198 file /home/snelliott/miniconda/envs/pacc-env-mini/share/psi4/basis/cc-pvdz.gbs 
    atoms 3-4 entry H          line    22 file /home/snelliott/miniconda/envs/pacc-env-mini/share/psi4/basis/cc-pvdz.gbs 


         ---------------------------------------------------------
                                   SCF
               by Justin Turney, Rob Parrish, Andy Simmonett
                          and Daniel G. A. Smith
                              RKS Reference
                        1 Threads,    953 MiB Core
         ---------------------------------------------------------

  ==> Geometry <==

    Molecular point group: c1
    Full point group: C1

    Geometry (in Angstrom), charge = 0, multiplicity = 1:

       Center              X                  Y                   Z               Mass       
    ------------   -----------------  -----------------  -----------------  -----------------
         O            0.025157990448    -0.015199915530    -0.726409702593    15.994914619570
         O            0.025157990448    -0.015199915530     0.726409705312    15.994914619570
         H            0.025157990448     0.943730689296    -0.892901331505     1.007825032230
         H           -0.823709120562    -0.461263309832     0.892901288350     1.007825032230

  Running in c1 symmetry.

  Rotational constants: A =      9.92996  B =      0.88353  C =      0.84947 [cm^-1]
  Rotational constants: A = 297692.81964  B =  26487.56707  C =  25466.36024 [MHz]
  Nuclear repulsion =   36.727913099765765

  Charge       = 0
  Multiplicity = 1
  Electrons    = 18
  Nalpha       = 9
  Nbeta        = 9

  ==> Algorithm <==

  SCF Algorithm Type is PK.
  DIIS enabled.
  MOM disabled.
  Fractional occupation disabled.
  Guess Type is READ.
  Energy threshold   = 1.00e-08
  Density threshold  = 1.00e-08
  Integral threshold = 0.00e+00

  ==> Primary Basis <==

  Basis Set: CC-PVDZ
    Blend: CC-PVDZ
    Number of shells: 18
    Number of basis function: 38
    Number of Cartesian functions: 40
    Spherical Harmonics?: true
    Max angular momentum: 2

  ==> DFT Potential <==

   => Composite Functional: B3LYP <= 

    B3LYP Hyb-GGA Exchange-Correlation Functional

    P. J. Stephens, F. J. Devlin, C. F. Chabalowski, and M. J. Frisch, J. Phys. Chem. 98, 11623 (1994)

    Deriv               =              1
    GGA                 =           TRUE
    Meta                =          FALSE

    Exchange Hybrid     =           TRUE
    MP2 Hybrid          =          FALSE

   => Exchange Functionals <=

    0.0800   Slater exchange
    0.7200         Becke 88

   => Exact (HF) Exchange <=

    0.2000               HF 

   => Correlation Functionals <=

    0.1900   Vosko, Wilk & Nusair (VWN5_RPA)
    0.8100   Lee, Yang & Parr

   => Molecular Quadrature <=

    Radial Scheme          =       TREUTLER
    Pruning Scheme         =           FLAT
    Nuclear Scheme         =       TREUTLER

    BS radius alpha        =              1
    Pruning alpha          =              1
    Radial Points          =             75
    Spherical Points       =            302
    Total Points           =          88334
    Total Blocks           =            718
    Max Points             =            256
    Max Functions          =             38

   => Loading Basis Set <=

    Name: CC-PVDZ
    Role: ORBITAL
    Keyword: BASIS
    atoms 1-2 entry O          line   198 file /home/snelliott/miniconda/envs/pacc-env-mini/share/psi4/basis/cc-pvdz.gbs 
    atoms 3-4 entry H          line    22 file /home/snelliott/miniconda/envs/pacc-env-mini/share/psi4/basis/cc-pvdz.gbs 

  Reading orbitals from file 180, no projection.

  ==> Pre-Iterations <==

   -------------------------------------------------------
    Irrep   Nso     Nmo     Nalpha   Nbeta   Ndocc  Nsocc
   -------------------------------------------------------
     A         38      38       0       0       0       0
   -------------------------------------------------------
    Total      38      38       9       9       9       0
   -------------------------------------------------------

  ==> Integral Setup <==

  Using in-core PK algorithm.
   Calculation information:
      Number of atoms:                   4
      Number of AO shells:              18
      Number of primitives:             54
      Number of atomic orbitals:        40
      Number of basis functions:        38

      Integral cutoff                 1.00e-12
      Number of threads:                 1

  Performing in-core PK
  Using 549822 doubles for integral storage.
  We computed 14706 shell quartets total.
  Whereas there are 14706 unique shell quartets.

  ==> DiskJK: Disk-Based J/K Matrices <==

    J tasked:                  Yes
    K tasked:                  Yes
    wK tasked:                  No
    Memory [MiB]:              622
    Schwarz Cutoff:          1E-12

    OpenMP threads:              1

  Cached 100.0% of DFT collocation blocks in 0.091 [GiB].

  Minimum eigenvalue in the overlap matrix is 2.5416593358E-02.
  Using Symmetric Orthogonalization.

  SCF Guess: Orbitals guess was supplied from a previous computation.

  ==> Iterations <==

                        Total Energy        Delta E     RMS |[F,P]|

   @RKS iter   0:  -151.55058525619694   -1.51551e+02   2.82271e-05 
   @RKS iter   1:  -151.55066523975245   -7.99836e-05   7.29927e-06 DIIS
   @RKS iter   2:  -151.55066526310944   -2.33570e-08   2.53285e-06 DIIS
   @RKS iter   3:  -151.55066526539474   -2.28530e-09   1.35060e-06 DIIS
   @RKS iter   4:  -151.55066526623733   -8.42590e-10   4.65699e-07 DIIS
   @RKS iter   5:  -151.55066526635486   -1.17524e-10   6.50392e-08 DIIS
   @RKS iter   6:  -151.55066526635690   -2.04636e-12   2.19154e-08 DIIS
   @RKS iter   7:  -151.55066526635721   -3.12639e-13   2.76031e-09 DIIS
  Energy and wave function converged.


  ==> Post-Iterations <==

    Orbital Energies [Eh]
    ---------------------

    Doubly Occupied:                                                      

       1A    -19.187252     2A    -19.187213     3A     -1.108857  
       4A     -0.889313     5A     -0.519446     6A     -0.483445  
       7A     -0.408350     8A     -0.313086     9A     -0.266789  

    Virtual:                                                              

      10A      0.022085    11A      0.052263    12A      0.106599  
      13A      0.575822    14A      0.581249    15A      0.847248  
      16A      0.872402    17A      0.899209    18A      0.952268  
      19A      1.016209    20A      1.058073    21A      1.217984  
      22A      1.269816    23A      1.390255    24A      1.421708  
      25A      1.656808    26A      1.726926    27A      2.075918  
      28A      2.088434    29A      2.395088    30A      2.418750  
      31A      2.551498    32A      2.882097    33A      2.917097  
      34A      3.047911    35A      3.147603    36A      3.505166  
      37A      3.533192    38A      3.818451  

    Final Occupation by Irrep:
              A 
    DOCC [     9 ]

  @RKS Final Energy:  -151.55066526635721

   => Energetics <=

    Nuclear Repulsion Energy =             36.7279130997657646
    One-Electron Energy =                -281.4458203201845663
    Two-Electron Energy =                 107.6295212969474449
    DFT Exchange-Correlation Energy =     -14.4622793428858696
    Empirical Dispersion Energy =           0.0000000000000000
    VV10 Nonlocal Energy =                  0.0000000000000000
    Total Energy =                       -151.5506652663572140

Computation Completed


Properties will be evaluated at   0.000000,   0.000000,   0.000000 [a0]

Properties computed using the SCF density matrix

  Nuclear Dipole Moment: [e a0]
     X:    -0.7484      Y:     0.4522      Z:    -0.0000

  Electronic Dipole Moment: [e a0]
     X:     0.1686      Y:    -0.1019      Z:     0.0000

  Dipole Moment: [e a0]
     X:    -0.5797      Y:     0.3503      Z:    -0.0000     Total:     0.6773

  Dipole Moment: [D]
     X:    -1.4735      Y:     0.8903      Z:    -0.0000     Total:     1.7216


*** tstop() called on Ewan at Mon Sep  9 15:47:32 2019
Module time:
	user time   =       1.74 seconds =       0.03 minutes
	system time =       0.01 seconds =       0.00 minutes
	total time  =          2 seconds =       0.03 minutes
Total time:
	user time   =      15.06 seconds =       0.25 minutes
	system time =       0.24 seconds =       0.00 minutes
	total time  =         16 seconds =       0.27 minutes

*** tstart() called on Ewan
*** at Mon Sep  9 15:47:32 2019


         ------------------------------------------------------------
                                   SCF GRAD                          
                          Rob Parrish, Justin Turney,                
                       Andy Simmonett, and Alex Sokolov              
         ------------------------------------------------------------

  ==> Geometry <==

    Molecular point group: c1
    Full point group: C1

    Geometry (in Angstrom), charge = 0, multiplicity = 1:

       Center              X                  Y                   Z               Mass       
    ------------   -----------------  -----------------  -----------------  -----------------
         O            0.025157990448    -0.015199915530    -0.726409702593    15.994914619570
         O            0.025157990448    -0.015199915530     0.726409705312    15.994914619570
         H            0.025157990448     0.943730689296    -0.892901331505     1.007825032230
         H           -0.823709120562    -0.461263309832     0.892901288350     1.007825032230

  Nuclear repulsion =   36.727913099765765

  ==> Basis Set <==

  Basis Set: CC-PVDZ
    Blend: CC-PVDZ
    Number of shells: 18
    Number of basis function: 38
    Number of Cartesian functions: 40
    Spherical Harmonics?: true
    Max angular momentum: 2

  ==> DirectJKGrad: Integral-Direct SCF Gradients <==

    Gradient:                    1
    J tasked:                  Yes
    K tasked:                  Yes
    wK tasked:                  No
    Integrals threads:           1
    Schwarz Cutoff:          0E+00

  ==> DFT Potential <==

   => Composite Functional: B3LYP <= 

    B3LYP Hyb-GGA Exchange-Correlation Functional

    P. J. Stephens, F. J. Devlin, C. F. Chabalowski, and M. J. Frisch, J. Phys. Chem. 98, 11623 (1994)

    Deriv               =              1
    GGA                 =           TRUE
    Meta                =          FALSE

    Exchange Hybrid     =           TRUE
    MP2 Hybrid          =          FALSE

   => Exchange Functionals <=

    0.0800   Slater exchange
    0.7200         Becke 88

   => Exact (HF) Exchange <=

    0.2000               HF 

   => Correlation Functionals <=

    0.1900   Vosko, Wilk & Nusair (VWN5_RPA)
    0.8100   Lee, Yang & Parr

   => Molecular Quadrature <=

    Radial Scheme          =       TREUTLER
    Pruning Scheme         =           FLAT
    Nuclear Scheme         =       TREUTLER

    BS radius alpha        =              1
    Pruning alpha          =              1
    Radial Points          =             75
    Spherical Points       =            302
    Total Points           =          88334
    Total Blocks           =            718
    Max Points             =            256
    Max Functions          =             38


  -Total Gradient:
     Atom            X                  Y                   Z
    ------   -----------------  -----------------  -----------------
       1       -0.000002088373     0.000001569388    -0.000001300781
       2       -0.000002355832     0.000001116840     0.000001306393
       3       -0.000001790018    -0.000000080111    -0.000000715258
       4       -0.000000761634     0.000001620644     0.000000709647


*** tstop() called on Ewan at Mon Sep  9 15:47:32 2019
Module time:
	user time   =       0.75 seconds =       0.01 minutes
	system time =       0.00 seconds =       0.00 minutes
	total time  =          0 seconds =       0.00 minutes
Total time:
	user time   =      15.81 seconds =       0.26 minutes
	system time =       0.24 seconds =       0.00 minutes
	total time  =         16 seconds =       0.27 minutes

			-----------------------------------------
			 OPTKING 2.0: for geometry optimizations 
			  - R.A. King,  Bethel University        
			-----------------------------------------

	Previous internal coordinate definitions found.
	---Fragment 1 Geometry and Gradient---
	 O           0.0475417118       -0.0287236775       -1.3727153928
	 O           0.0475417118       -0.0287236775        1.3727153979
	 H           0.0475417118        1.7833925390       -1.6873389736
	 H          -1.5565846449       -0.8716613273        1.6873388920
	            -0.0000020884        0.0000015694       -0.0000013008
	            -0.0000023558        0.0000011168        0.0000013064
	            -0.0000017900       -0.0000000801       -0.0000007153
	            -0.0000007616        0.0000016206        0.0000007096

	---Fragment 1 Intrafragment Coordinates---
	 - Coordinate -           - BOHR/RAD -       - ANG/DEG -
	 R(1,2)           =         2.745431	       1.452819
	 R(1,3)           =         1.839226	       0.973277
	 R(2,4)           =         1.839226	       0.973277
	 B(1,2,4)         =         1.742705	      99.849628
	 B(2,1,3)         =         1.742705	      99.849631
	 D(3,1,2,4)       =         2.054620	     117.721065

	Current energy   :      -151.5506652664

	Energy change for the previous step:
		Projected    :         0.0000003261
		Actual       :        -0.0000000304

	Performing BFGS update.
	Previous computed or guess Hessian on step 1.
	Denominators (dg)(dq) or (dq)(dq) are very small.
	 Skipping Hessian update for step 5.
	Steps to be used in Hessian update: 4 3
	Taking RFO optimization step.
	Going to follow RFO solution 1.
	Using RFO vector 1.
	Norm of target step-size    0.00007
	Projected energy change by RFO approximation:         0.0000000002

	Back-transformation to cartesian coordinates...
	Successfully converged to displaced geometry.

	--- Internal Coordinate Step in ANG or DEG, aJ/ANG or AJ/DEG ---
	 ---------------------------------------------------------------------------
	   Coordinate                Previous        Force       Change         New 
	   ----------                --------       ------       ------       ------
	    1 R(1,2)          =      1.452819    -0.000012    -0.000003     1.452816
	    2 R(1,3)          =      0.973277     0.000005     0.000001     0.973277
	    3 R(2,4)          =      0.973277     0.000005     0.000001     0.973277
	    4 B(1,2,4)        =     99.849628    -0.000000     0.000142    99.849769
	    5 B(2,1,3)        =     99.849631    -0.000000     0.000138    99.849768
	    6 D(3,1,2,4)      =    117.721065    -0.000000    -0.004127   117.716938
	 ---------------------------------------------------------------------------
	Successfully symmetrized geometry.

  ==> Convergence Check <==

  Measures of convergence in internal coordinates in au.
  Criteria marked as inactive (o), active & met (*), and active & unmet ( ).
  ---------------------------------------------------------------------------------------------
   Step     Total Energy     Delta E     MAX Force     RMS Force      MAX Disp      RMS Disp   
  ---------------------------------------------------------------------------------------------
    Convergence Criteria    1.00e-06 *    3.00e-04 *             o    1.20e-03 *             o
  ---------------------------------------------------------------------------------------------
      6    -151.55066527   -3.04e-08 *    1.49e-06 *    7.91e-07 o    7.20e-05 *    2.96e-05 o  ~
  ---------------------------------------------------------------------------------------------


  **** Optimization is complete! (in 6 steps) ****

  ==> Optimization Summary <==

  Measures of convergence in internal coordinates in au.
  --------------------------------------------------------------------------------------------------------------- ~
   Step         Total Energy             Delta E       MAX Force       RMS Force        MAX Disp        RMS Disp  ~
  --------------------------------------------------------------------------------------------------------------- ~
      1    -151.550004860755   -151.550004860755      0.01150119      0.00759028      0.08537758      0.05386322  ~
      2    -151.550404059055     -0.000399198300      0.00852041      0.00509645      0.12105279      0.05128602  ~
      3    -151.550649162189     -0.000245103134      0.00209063      0.00102499      0.03211553      0.01375582  ~
      4    -151.550661772072     -0.000012609884      0.00063595      0.00031495      0.03106486      0.01275625  ~
      5    -151.550665235952     -0.000003463880      0.00011006      0.00005170      0.00210234      0.00087217  ~
      6    -151.550665266357     -0.000000030405      0.00000149      0.00000079      0.00007203      0.00002957  ~
  --------------------------------------------------------------------------------------------------------------- ~

	Writing optimization data to binary file.
	Final energy is   -151.5506652663572
	Final (previous) structure:
	Cartesian Geometry (in Angstrom)
	    O     0.0251579903  -0.0151999155  -0.7264096997
	    O     0.0251579903  -0.0151999155   0.7264097025
	    H     0.0251579903   0.9437306856  -0.8929013280
	    H    -0.8237091173  -0.4612633080   0.8929012848
	Saving final (previous) structure.
			--------------------------
			 OPTKING Finished Execution 
			--------------------------

    Final optimized geometry and variables:
    Molecular point group: c1
    Full point group: C1

    Geometry (in Angstrom), charge = 0, multiplicity = 1:

    O       
    O             1          R1
    H             1          R2      2          A2
    H             2          R3      1          A3      3          D3

    A2        =   99.8496305509
    A3        =   99.8496277903
    D3        =  117.7210654347
    R1        =    1.4528194079
    R2        =    0.9732766140
    R3        =    0.9732766159

	Removing binary optimization data file.
	Cleaning optimization helper files.

    Psi4 stopped on: Monday, 09 September 2019 03:47PM
    Psi4 wall time for execution: 0:00:16.17

*** Psi4 exiting successfully. Buy a developer a beer!
