[Molden Format]
[Molpro variables]
_NUMVAR=  685.0000000000000    
_EV2006= 0.3674930886769165E-01
_EV= 0.3674932534394180E-01
_KJOULE= 0.3808798324128737E-03
_KJOULE/MOL= 0.3808798324128737E-03
_CM= 0.4556335267302901E-05
_CM-1= 0.4556335267302901E-05
_KCAL= 0.1593601117815568E-02
_KCAL/MOL= 0.1593601117815568E-02
_KELVIN2006= 0.3166828861084835E-05
_KELVIN= 0.3166814820820034E-05
_HERTZ2006= 0.1519829850815779E-15
_HERTZ= 0.1519829846011223E-15
_HZ2006= 0.1519829850815779E-15
_HZ= 0.1519829846011223E-15
_TOA2006= 0.5291772490000000    
_TOA= 0.5291772090000000    
_TOANG2006= 0.5291772490000000    
_TOANG= 0.5291772090000000    
_TORAD= 0.1745329251994330E-01
_TOCM=  219474.6306700000    
_TODEBYE=  2.541580000000000    
_TOEV2006=  27.21139610000000    
_TOEV=  27.21138390000000    
_TOHERTZ2006=  6579683899900000.    
_TOHERTZ=  6579683920700000.    
_TOHZ2006=  6579683899900000.    
_TOHZ=  6579683920700000.    
_TOK2006=  315773.3000000000    
_TOK=  315774.7000000000    
_TOKCAL=  627.5096000000000    
_TOKELVIN2006=  315773.3000000000    
_TOKELVIN=  315774.7000000000    
_TOKJ=  2625.500000000000    
_TOKJOULE=  2625.500000000000    
_ANG2006=  1.889725988578923    
_ANG=  1.889726131421507    
_ANGSTROM2006=  1.889725988578923    
_ANGSTROM=  1.889726131421507    
_IGNORE_UNDEF=  2.000000000000000    
_STRICTCHECK=  0.000000000000000    
_SEW_ONEEL=  0.000000000000000    
_CPPDONE=FALSE
_DKROLL_DONE=  0.000000000000000    
_FOCKDONE=  0.000000000000000    
_GRADONE=FALSE
_HESSDONE=FALSE
_INTDONE=TRUE
_SCFDONE=FALSE
_MODUL_CUDA=FALSE
_MODUL_SLATER=FALSE
_MODUL_MRCC=FALSE
_MRCC_EXEC=
_FITC_AO_SAVED=FALSE
_FITC_MO_SAVED=FALSE
_SHARED_FS=TRUE
_LSTYP=SEWARD
_INTYP=INTS
_GEOMTYP=ZMAT
_GRADTYP=ALASKA
_DIRECT=FALSE
_SYNCM=  0.000000000000000    
_BASIS=CC-PVDZ
_ZORIENT=  1.000000000000000    
_NELEC=  10.00000000000000    
_SPIN=  0.000000000000000    
!SPIN=  0.000000000000000    
_QSDSTEP=  0.000000000000000    
_QSDIRC=  0.000000000000000    
_PROGRAM=RS2
_CPUSTEP= 0.5000000000000004E-01
_SYSSTEP= 0.1000000000000001E-01
_WALLSTEP=  1.530000000000000    
!DFMP2=  0.000000000000000    
!DFSCF=  0.000000000000000    
!SCSGRD=  0.000000000000000    
_BASINP=  610.0000000000000    
_CPUTOT= 0.6300000000000000    
_DFTEXFAC=  1.000000000000000    
_DMX=-0.2582919781283713E-07
_DMY= 0.1090037814693371E-05
_DMZ= 0.7684183463150607E-01
_EMP2= -40.19611854422736    
_ENERGR= -40.06111935757130    
_ENERGU= -40.18768841007430    
_ENERGY= -40.19611854422736    
_ENUC=  11.03920047493526    
_GRADEXFAC=  9999.000000000000    
_GRADMETHOD=TRUE
!GRID_FREEZE= -1.000000000000000    
_ITERATIONS=  5.000000000000000    
_LASTNELEC=  2.000000000000000    
_LASTSPIN=  0.000000000000000    
_LASTSYM=  1.000000000000000    
_MPP_PROG=  1.000000000000000    
_NPROC_MPP=  4.000000000000000    
_NPROC_SMP=  1.000000000000000    
_NUMSTEP=  0.000000000000000    
_ORBITAL=  2141.200000000000    
_PI=  3.141592653589793    
!MCACT=  2.000000000000000    
!MCCLOSED=  4.000000000000000    
!MCFREEZE=  0.000000000000000    
!MCMS2=  0.000000000000000    
!MCNEL=  2.000000000000000    
!MCNSTSYM=  1.000000000000000    
!MCSTATE=  1.000000000000000    
!MCSYM=  1.000000000000000    
!MCWEIGHT=  1.000000000000000    
_SEIG_MIN= 0.1527851318778371E-01
_SEWPROP=TRUE
_STATUS=  1.000000000000000    
_SYSTOT= 0.1600000000000000    
_VERSION=  2010001.000000000    
_WALLTOT=  9.710000000000001    
_DATE=30-Aug-19
_LASTORB=MCSCF
_MACHINE=Linux-2.6.34-12-desktop/tt106(x86_64) 64 bit mpp version
_OUTPUT=/home/carlo/qm/combustion/test_diss/newalg/ch4_ch3_h_vrc_test1/dist_3.2/molpro.xml
_PGROUP=C1
_TIME=07:49:31
_LIBMOL=/programs/molpro2010p/bin/../lib/
!SURFREC=  0.000000000000000    
!POLYREC=  0.000000000000000    
!DIPREC=  0.000000000000000    
!VSCFREC=  0.000000000000000    
!VCIREC=  0.000000000000000    
!PVCIREC=  0.000000000000000    
!VMP2REC=  0.000000000000000    
!VMCSCFREC=  0.000000000000000    
!GAREC=  0.000000000000000    
!SCFORB=  21002.00000000000    
!MCORB=  21412.00000000000    
!CIOCC=  6.000000000000000    
!CICORE=  1.000000000000000    
!CICLOS=  4.000000000000000    
!CIISTSYM=  1.000000000000000    
!CIISTMS2=  0.000000000000000    
!CIISTNEL=  8.000000000000000    
!NEWMOL=  0.000000000000000    
!NEWSYM=  0.000000000000000    
_SLFILES=slscratch
_NGSSTO=  9.000000000000000    
_SIN=SIN
_COS=COS
_TAN=TAN
_ACOS=ACOS
_ASIN=ASIN
_ATAN=ATAN
_COSH=COSH
_SINH=SINH
_TANH=TANH
_ABS=ABS
_MOD=MOD
_ERF=ERF
_REFC=REFC
_ERFC=ERFC
_HYPOT=HYPOT
_J0=J0
_J1=J1
_JN=JN
_GAMMA=GAMMA
_LGAMMA=LGAMMA
_Y0=Y0
_Y1=Y1
_YN=YN
_EXP=EXP
_LOG=LOG
_LOG10=LOG10
_SQRT=SQRT
_INT=INT
_NINT=NINT
_MAX=MAX
_MIN=MIN
_COSMO=  0.000000000000000    
_COSMOIT=  0.000000000000000    
_COSMOES=  0.000000000000000    
_COSMOEDS=  0.000000000000000    
_COSMOEC=  0.000000000000000    
_COSMOEDCORR=  0.000000000000000    
_FEPSI=  1.000000000000000    
_SL_IsMM=  0.000000000000000    
_SL_NSYM=  0.000000000000000    
_SL_System_BitSw=  0.000000000000000    
_SL_Unique_atoms=  0.000000000000000    
_SL_GRAD=  0.000000000000000    
_SL_MAXUPD_Hess=  5.000000000000000    
_SL_N_PRINT_COD=  5.000000000000000    
_SL_PRINT_CODES=  0.000000000000000    
_SL_BasType=  0.000000000000000    
_SL_Energy_Pred=  0.000000000000000    
_SL_New_Coords=  0.000000000000000    
_SL_Total_Nuclea=  0.000000000000000    
_SL_Highest_Mltp=  0.000000000000000    
_SL_Ref_Geom=  0.000000000000000    
!LATTICE= -1.000000000000000    
!NEWLATTICE=  0.000000000000000    
!LATGRAD_VAR=FALSE
!SEW_LATTICE=  1.000000000000000    
!LOCAL=  0.000000000000000    
!SAVEDOM= -1.000000000000000    
!RESTDOM= -1.000000000000000    
!SAVEDOM_HF= -1.000000000000000    
!RESTDOM_HF= -1.000000000000000    
!HESSREC=  0.000000000000000    
!FREQREC=  0.000000000000000    
!NMODREC=  0.000000000000000    
!GTASKS=  0.000000000000000    
!HTASKS=  0.000000000000000    
!THRCHG= 0.1000000000000000    
!DEBUG= -1.000000000000000    
!CFIT_CPHF=  0.000000000000000    
!RDOMAUX_CPHF=  3.000000000000000    
!THRAO_CPHF= 0.1000000000000000E-09
!THRMO_CPHF= 0.1000000000000000E-08
!THROV_CPHF= 0.1000000000000000E-11
!THRSW_CPHF= 0.1000000000000000E-09
!THRPROD_CPHF= 0.1000000000000000E-08
!THRAOPR_CPHF= 0.1000000000000000E-11
!CFIT_SCFGRD=  0.000000000000000    
!RDOMAUX_SCFGRD=  5.000000000000000    
!THRAO_SCFGRD= 0.1000000000000000E-09
!THRMO_SCFGRD= 0.1000000000000000E-08
!THROV_SCFGRD= 0.1000000000000000E-11
!THRSW_SCFGRD= 0.1000000000000000E-09
!THRPROD_SCFGRD= 0.1000000000000000E-08
!THRAOPR_SCFGRD= 0.1000000000000000E-11
!LOCFIT_SCF=  0.000000000000000    
!LOCFIT_MP2= -1.000000000000000    
_RIDOM=  0.000000000000000    
!CC2_METHOD=  0.000000000000000    
_BASIS2006=FALSE
_SVDDEL= -1.000000000000000    
_SVDDELA= -1.000000000000000    
_SVDDELP= -1.000000000000000    
_SVDDELF= -1.000000000000000    
_SVDDELS= -1.000000000000000    
_SVDDEL_ABS= -1.000000000000000    
_SVDDELA_ABS= -1.000000000000000    
_SVDDELP_ABS= -1.000000000000000    
_SVDDELF_ABS= -1.000000000000000    
_SVDDELS_ABS= -1.000000000000000    
_MAXBASIS=  0.000000000000000    
!OPT_CONICAL=  0.000000000000000    
!CLEARSP_JGRID=  0.000000000000000    
RCH1=  1.089987840209000    
RCH2=  1.089987112585718    
RCH3=  1.089987456689902    
AHCC1=  119.9715845881226    
AHCC2=  119.9704415427902    
AHCC3=  90.98035533306094    
B1=  176.5991508691534    
B2= -91.70020260769353    
RCH4=  3.200000000000000    
GX1= 0.3017111672577125E-05
GY1= 0.1641203353736770E-05
GZ1= 0.3732765219277563    
GX2=  1.043688270312302    
GY2=  1.775436119035459    
GZ2= 0.4085042820652717    
GX3=  1.015708482114799    
GY3= -1.791583100163160    
GZ3= 0.4086084670798449    
GX4= -2.059408003073808    
GY4= 0.1615789665716683E-01
GZ4= 0.4086280087966772    
GX5=-0.2470241428818853E-04
GY5=-0.3047273870576683E-04
GZ5= -5.673847098472262    
CBSEN= -40.19611854422736    
[Atoms] Angs
C     1    6         0.0000015966        0.0000008685        0.1975294281
H     2    1         0.5522960459        0.9395203302        0.2161711558
H     3    1         0.5374897797       -0.9480649446        0.2162262882
H     4    1        -1.0897917793        0.0085503907        0.2162366292
H     5    1        -0.0000130720       -0.0000161255       -3.0024705719
[GTO]
  1 0
 s    9  1.00
  0.6665000000D+04  0.6920001793D-03
  0.1000000000D+04  0.5329001381D-02
  0.2280000000D+03  0.2707700701D-01
  0.6471000000D+02  0.1017180264D+00
  0.2106000000D+02  0.2747400712D+00
  0.7495000000D+01  0.4485641162D+00
  0.2797000000D+01  0.2850740738D+00
  0.5215000000D+00  0.1520400394D-01
  0.1596000000D+00 -0.3191000827D-02
 s    9  1.00
  0.6665000000D+04 -0.1460000642D-03
  0.1000000000D+04 -0.1154000508D-02
  0.2280000000D+03 -0.5725002519D-02
  0.6471000000D+02 -0.2331201026D-01
  0.2106000000D+02 -0.6395502813D-01
  0.7495000000D+01 -0.1499810660D+00
  0.2797000000D+01 -0.1272620560D+00
  0.5215000000D+00  0.5445292395D+00
  0.1596000000D+00  0.5804962554D+00
 s    9  1.00
  0.6665000000D+04  0.0000000000D+00
  0.1000000000D+04  0.0000000000D+00
  0.2280000000D+03  0.0000000000D+00
  0.6471000000D+02  0.0000000000D+00
  0.2106000000D+02  0.0000000000D+00
  0.7495000000D+01  0.0000000000D+00
  0.2797000000D+01  0.0000000000D+00
  0.5215000000D+00  0.0000000000D+00
  0.1596000000D+00  0.1000000000D+01
 p    4  1.00
  0.9439000000D+01  0.3810902127D-01
  0.2002000000D+01  0.2094801169D+00
  0.5456000000D+00  0.5085572839D+00
  0.1517000000D+00  0.4688422617D+00
 p    4  1.00
  0.9439000000D+01  0.0000000000D+00
  0.2002000000D+01  0.0000000000D+00
  0.5456000000D+00  0.0000000000D+00
  0.1517000000D+00  0.1000000000D+01
 d    1  1.00
  0.5500000000D+00  0.1000000000D+01
  
  2 0
 s    4  1.00
  0.1301000000D+02  0.1968498999D-01
  0.1962000000D+01  0.1379769298D+00
  0.4446000000D+00  0.4781477569D+00
  0.1220000000D+00  0.5012397451D+00
 s    4  1.00
  0.1301000000D+02  0.0000000000D+00
  0.1962000000D+01  0.0000000000D+00
  0.4446000000D+00  0.0000000000D+00
  0.1220000000D+00  0.1000000000D+01
 p    1  1.00
  0.7270000000D+00  0.1000000000D+01
  
  3 0
 s    4  1.00
  0.1301000000D+02  0.1968498999D-01
  0.1962000000D+01  0.1379769298D+00
  0.4446000000D+00  0.4781477569D+00
  0.1220000000D+00  0.5012397451D+00
 s    4  1.00
  0.1301000000D+02  0.0000000000D+00
  0.1962000000D+01  0.0000000000D+00
  0.4446000000D+00  0.0000000000D+00
  0.1220000000D+00  0.1000000000D+01
 p    1  1.00
  0.7270000000D+00  0.1000000000D+01
  
  4 0
 s    4  1.00
  0.1301000000D+02  0.1968498999D-01
  0.1962000000D+01  0.1379769298D+00
  0.4446000000D+00  0.4781477569D+00
  0.1220000000D+00  0.5012397451D+00
 s    4  1.00
  0.1301000000D+02  0.0000000000D+00
  0.1962000000D+01  0.0000000000D+00
  0.4446000000D+00  0.0000000000D+00
  0.1220000000D+00  0.1000000000D+01
 p    1  1.00
  0.7270000000D+00  0.1000000000D+01
  
  5 0
 s    4  1.00
  0.1301000000D+02  0.1968498999D-01
  0.1962000000D+01  0.1379769298D+00
  0.4446000000D+00  0.4781477569D+00
  0.1220000000D+00  0.5012397451D+00
 s    4  1.00
  0.1301000000D+02  0.0000000000D+00
  0.1962000000D+01  0.0000000000D+00
  0.4446000000D+00  0.0000000000D+00
  0.1220000000D+00  0.1000000000D+01
 p    1  1.00
  0.7270000000D+00  0.1000000000D+01
 
 
[MO]
 Sym=      1.1
 Ene=     -11.2374
 Spin= Alpha
 Occup=    2.000000
1 1.00131457835077
2 0.007643313039032
3 -0.007667349090261
4 -0.000000001465235
5 -0.000000000218990
6 0.000055831425107
7 0.000000014698047
8 0.000000000328173
9 -0.000005530348505
10 0.000355127484229
11 0.000355165620080
12 -0.000710293104309
13 -0.000000002139691
14 -0.000000028621167
15 -0.000000035391175
16 -0.000640628187078
17 0.001530847641615
18 0.000261281302355
19 0.000444455349469
20 0.000014282818919
21 -0.000640635463289
22 0.001530855139341
23 0.000254276681473
24 -0.000448499225315
25 0.000014308857128
26 -0.000640598046733
27 0.001530841547806
28 -0.000515540727898
29 0.000004043855580
30 0.000014313202080
31 -0.000158351649025
32 0.000237573377574
33 -0.000000000215276
34 -0.000000000292014
35 0.000024897640446
 Sym=      2.1
 Ene=      -0.8972
 Spin= Alpha
 Occup=    2.000000
1 -0.026351189720694
2 0.75990108968449
3 -0.14229468406032
4 -0.000001106191928
5 0.000000079075459
6 0.009035972160281
7 0.000000768126612
8 0.000000023286353
9 -0.001747195447012
10 0.001912115104683
11 0.001912099108362
12 -0.003824214213045
13 -0.000000010900700
14 -0.000000153926191
15 -0.000000189454939
16 0.34641455894773
17 -0.14339691868939
18 -0.014177208204438
19 -0.024117012110610
20 -0.000213552061352
21 0.34641517499527
22 -0.14339720242150
23 -0.013797166815669
24 0.024336448879634
25 -0.000214971554975
26 0.34641568908812
27 -0.14339704301214
28 0.027974535971997
29 -0.000219460248729
30 -0.000215236709429
31 0.004130769424547
32 0.000993439686825
33 0.000000000530069
34 0.000000000401167
35 0.000502433608936
 Sym=      3.1
 Ene=      -0.5691
 Spin= Alpha
 Occup=    2.000000
1 -0.000000007662511
2 0.000000027160899
3 -0.000000119388907
4 0.038602880248983
5 -0.63703981231445
6 0.000017507978685
7 -0.007082050939449
8 0.11687019997355
9 -0.000003226578865
10 -0.001713791027291
11 0.001713722243360
12 0.000000068783931
13 -0.023487283283640
14 0.000080505381611
15 -0.001316048472960
16 -0.52777137316476
17 0.14892489593277
18 0.015452510300420
19 0.012725160330564
20 0.000368138588267
21 0.57121792821943
22 -0.16118453318368
23 -0.014746521746600
24 0.015031094388127
25 -0.000399332820057
26 -0.043446910670368
27 0.012259695854774
28 -0.001644057987444
29 -0.012275394562854
30 0.000030759265041
31 -0.000000188725634
32 0.000000001327319
33 0.000019022752655
34 -0.000313950509208
35 -0.000000015469302
 Sym=      4.1
 Ene=      -0.5691
 Spin= Alpha
 Occup=    2.000000
1 -0.000000033500906
2 0.000002032866930
3 0.000000314107186
4 0.63704004135592
5 0.038602765081711
6 -0.000015946613006
7 -0.11686878543071
8 -0.007081872064499
9 0.000002949247598
10 -0.020340947593875
11 0.020340968339966
12 -0.000000020746092
13 0.001978930275826
14 0.001317031324445
15 0.000079051773275
16 0.35487634817146
17 -0.10013719482011
18 0.002404784623819
19 -0.016077985122745
20 -0.000247618464376
21 0.27962448598251
22 -0.078902987222641
23 0.004710742664224
24 0.014121206683850
25 -0.000195955336543
26 -0.63450151533884
27 0.17904054154032
28 -0.022595627862545
29 0.001018700990049
30 0.000443969224825
31 0.000000183820871
32 0.000000022510950
33 0.000313952094978
34 0.000019026325327
35 0.000000017983357
 Sym=      5.1
 Ene=      -0.1857
 Spin= Alpha
 Occup=    1.230225
1 -0.000662996127793
2 -0.000367772731249
3 -0.000158868324064
4 0.000014519600343
5 0.000017995268100
6 0.60009587334787
7 0.000001620720952
8 0.000002056888345
9 0.070846106284932
10 0.001246198010483
11 0.001246263067747
12 -0.002492461078231
13 0.000000030357477
14 -0.000000151721150
15 -0.000000103588993
16 0.012708101233653
17 -0.006020352379023
18 -0.000236549522859
19 -0.000402543843639
20 0.013619008597018
21 0.012707204077687
22 -0.006020106837093
23 -0.000230180660267
24 0.000406964343656
25 0.013618957902263
26 0.012706907226145
27 -0.006020075594584
28 0.000467657552964
29 -0.000003272162461
30 0.013618878768949
31 -0.67080506932397
32 -0.028159205187984
33 -0.000000006693372
34 -0.000000009103995
35 -0.000636339024546
 Sym=      6.1
 Ene=      -0.0979
 Spin= Alpha
 Occup=    0.769775
1 0.001848336707126
2 -0.021190471841953
3 -0.016808309252568
4 0.000015080820002
5 0.000018714858415
6 0.66267332704494
7 0.000001760451939
8 0.000002169995151
9 0.077569748073607
10 0.000472105057963
11 0.000472061097298
12 -0.000944166155261
13 -0.000000027445081
14 -0.000000102337332
15 -0.000000028628871
16 0.000855674907366
17 0.001773316722476
18 0.000076708143954
19 0.000130350934819
20 0.013660723107921
21 0.000856654474881
22 0.001773127951167
23 0.000074642451653
24 -0.000130706898335
25 0.013660754866523
26 0.000856815047588
27 0.001773088544155
28 -0.000150377106227
29 0.000001579630899
30 0.013660682763941
31 0.75011835914816
32 -0.031784167726927
33 0.000000007249921
34 0.000000011180744
35 -0.002094979731084
 Sym=      7.1
 Ene=       0.2004
 Spin= Alpha
 Occup=    0.000000
1 0.080650453860400
2 -0.22123175826302
3 -2.05175989960596
4 -0.000000024456511
5 -0.000000332730900
6 -0.016776560730806
7 0.000003433643033
8 -0.000000177321920
9 -0.011486439379433
10 -0.013300881439657
11 -0.013301454015796
12 0.026602335455453
13 0.000000051256827
14 0.000001096468253
15 0.000001344773050
16 0.058946546104693
17 1.00599793137285
18 -0.008912924787265
19 -0.015161432878864
20 -0.001016152919802
21 0.058946086043727
22 1.00600086828218
23 -0.008674018255407
24 0.015299382327854
25 -0.001017050295135
26 0.058944043890891
27 1.00600074950258
28 0.017586535781434
29 -0.000137978691809
30 -0.001017209713079
31 -0.088412053524053
32 0.039766370681789
33 0.000000135698764
34 0.000000183585207
35 0.004703484549132
 Sym=      8.1
 Ene=       0.2692
 Spin= Alpha
 Occup=    0.000000
1 0.000000071993958
2 -0.000000016500578
3 -0.000000009679921
4 -0.017146708283021
5 -0.44615889078091
6 0.000013001240115
7 -0.047556349467964
8 -1.23745129480790
9 0.000037460108340
10 0.000312727925734
11 -0.000312785487081
12 0.000000057561347
13 -0.024265643085274
14 -0.000069734490027
15 -0.001832071674749
16 0.022267332724698
17 1.89872279095199
18 -0.010506019852356
19 -0.021703080861625
20 -0.000148352044239
21 -0.021493811338819
22 -1.83284560807567
23 0.009564080882675
24 -0.021246951365118
25 0.000144388750049
26 -0.000772737016536
27 -0.065877180886535
28 -0.000866026979939
29 -0.004092963162978
30 0.000005288913568
31 -0.000002980745415
32 0.000000882441757
33 0.000112145102525
34 0.002913200320869
35 0.000000158374042
 Sym=      9.1
 Ene=       0.2692
 Spin= Alpha
 Occup=    0.000000
1 0.000000157183295
2 0.000001579054614
3 -0.000003147475110
4 0.44615999874100
5 -0.017146517418219
6 -0.000009670601014
7 1.23744172074530
8 -0.047557698124563
9 -0.000027848231513
10 -0.021014826579645
11 0.021014463919576
12 0.000000362660070
13 -0.000361102635588
14 0.001833197308446
15 -0.000071127375961
16 -0.011968246593564
17 -1.02015007421785
18 0.009659169551202
19 0.009300762338053
20 0.000079692088884
21 -0.013305927612613
22 -1.13425682849173
23 0.010115405362101
24 -0.010769416762184
25 0.000089230015324
26 0.025268950280301
27 2.15441545838831
28 0.027268930294694
29 -0.000339273046393
30 -0.000169910973459
31 0.000001605981255
32 -0.000000191885535
33 -0.002912823589293
34 0.000111758445038
35 -0.000000089523220
 Sym=     10.1
 Ene=       0.6152
 Spin= Alpha
 Occup=    0.000000
1 -0.000018806062359
2 -0.000043666767424
3 0.000134213815754
4 -0.44601197232783
5 -0.009015462391685
6 0.000119082070504
7 1.64174418888609
8 0.033184855669900
9 -0.000138075027381
10 0.10891269376968
11 -0.10894000915103
12 0.000027315381346
13 -0.005505517670640
14 -0.003115158022038
15 -0.000059136271455
16 -0.69860664906540
17 0.24776676031802
18 0.051782424596861
19 -0.033007604864043
20 -0.000617171004248
21 -0.63385327883172
22 0.22480171091090
23 0.054152920257360
24 0.033010488261909
25 -0.000561528300486
26 1.33210285232039
27 -0.47237341486808
28 -0.004174107145834
29 0.002054067459409
30 0.001189891212248
31 -0.000419490220136
32 0.000452009886722
33 0.009123631473128
34 0.000184373030727
35 0.000005515212724
 Sym=     11.1
 Ene=       0.6152
 Spin= Alpha
 Occup=    0.000000
1 0.000006635749183
2 0.000015216984434
3 -0.000051122995097
4 -0.009015714994206
5 0.44601368383174
6 -0.000061452126086
7 0.033187401815596
8 -1.64177641080113
9 0.000091427502611
10 0.004772762664867
11 -0.004762605515667
12 -0.000010157149200
13 0.12577836380055
14 -0.000066690130208
15 0.003109681034483
16 1.13508800804465
17 -0.40250566651357
18 0.034373150731706
19 -0.016051071584781
20 0.001007572558725
21 -1.17239090656114
22 0.41572268851973
23 -0.031629466408473
24 -0.013687138165963
25 -0.001044097785123
26 0.037426119852553
27 -0.013274842520524
28 -0.000686595784424
29 -0.072027355223840
30 0.000033340179509
31 0.000190752232268
32 -0.000204546699319
33 0.000184471728857
34 -0.009123579060534
35 -0.000003021190861
 Sym=     12.1
 Ene=       0.6217
 Spin= Alpha
 Occup=    0.000000
1 -0.070455663193661
2 -0.16060106897946
3 0.53523254648762
4 0.000120426743601
5 0.000065107278728
6 0.50335240119895
7 -0.000411655008165
8 -0.000194598937463
9 -0.47282628697107
10 -0.052672221204715
11 -0.052621777388101
12 0.10529399859282
13 0.000014572556879
14 0.000004274337007
15 0.000004643516060
16 -0.44054497465276
17 0.21693610164883
18 -0.020466706642935
19 -0.034794550457170
20 0.021086354232367
21 -0.44080293810376
22 0.21703460664206
23 -0.019925679177409
24 0.035108946139605
25 0.021085442275095
26 -0.44115121333282
27 0.21715012870082
28 0.040368611226657
29 -0.000324200666254
30 0.021084969969680
31 -1.76278081335687
32 1.90977432033180
33 -0.000002196443260
34 -0.000001003811964
35 0.018926468788678
 Sym=     13.1
 Ene=       0.7189
 Spin= Alpha
 Occup=    0.000000
1 -0.074230796669250
2 -0.046518221409837
3 0.39421334745514
4 -0.000012897116777
5 -0.000028999677287
6 -0.98813531669420
7 -0.000011984885065
8 0.000036664592059
9 1.19363239074611
10 -0.098513486688884
11 -0.098514109113836
12 0.19702759580272
13 -0.000000139591502
14 0.000008103691796
15 0.000009977463604
16 -0.84799610487087
17 0.62724173941912
18 -0.042890653273837
19 -0.072958580054537
20 -0.035795031007844
21 -0.84799199736473
22 0.62723871698924
23 -0.041740787666358
24 0.073620447579229
25 -0.035799541216708
26 -0.84802333570943
27 0.62723019063116
28 0.084625686242604
29 -0.000664729605219
30 -0.035800424865717
31 0.18513231209719
32 -0.16749424692442
33 -0.000000083065245
34 0.000000145650325
35 -0.020823612094084
 Sym=     14.1
 Ene=       0.7937
 Spin= Alpha
 Occup=    0.000000
1 -0.009962974691988
2 0.15728158817030
3 -0.16333678190265
4 0.000027035692883
5 0.000023620872648
6 0.99758699486267
7 -0.000045166880697
8 -0.000024668441042
9 -1.27597365938628
10 -0.077166712202188
11 -0.077171002894277
12 0.15433771509646
13 -0.000000542972364
14 0.000007489131664
15 0.000009185829402
16 -0.62856669366468
17 0.59719887160155
18 -0.039478009465522
19 -0.067155590565758
20 0.029218921766143
21 -0.62855383185167
22 0.59719050217639
23 -0.038419689311575
24 0.067769665616111
25 0.029213333997310
26 -0.62856221895834
27 0.59717360886990
28 0.077898412290222
29 -0.000609560587465
30 0.029212291908776
31 1.17750082617864
32 -1.43061413160152
33 0.000000285239815
34 0.000000443620483
35 0.071211372341289
 Sym=     15.1
 Ene=       0.8961
 Spin= Alpha
 Occup=    0.000000
1 0.000000977882020
2 0.000003246164657
3 -0.000003637575851
4 1.24967740155789
5 0.13803405186274
6 -0.000033543129378
7 -2.29831253948544
8 -0.25386211999352
9 0.000061518576556
10 0.28790021826649
11 -0.28789864299538
12 -0.000001575271107
13 -0.044659883133757
14 -0.010228341086243
15 -0.001118377834700
16 -0.35979499273961
17 1.19690936179786
18 -0.040334731280922
19 -0.17543402553041
20 -0.003481540670152
21 -0.23733360121364
22 0.78953066056517
23 -0.001849212682011
24 0.12913118484930
25 -0.002304274008852
26 0.59714547341524
27 -1.98645447632869
28 -0.28485625229403
29 0.010179251646068
30 0.005794430900661
31 -0.000001372117807
32 0.000001552711958
33 0.001417262713655
34 0.000157275905100
35 -0.000000625248971
 Sym=     16.1
 Ene=       0.8961
 Spin= Alpha
 Occup=    0.000000
1 -0.000000629483156
2 -0.000002980236256
3 0.000004348789125
4 0.13803359943203
5 -1.24967708921186
6 0.000031315962490
7 -0.25386142556218
8 2.29831846356826
9 -0.000058381858280
10 0.038676811303201
11 -0.038676054230749
12 -0.000000757072452
13 0.33243476040135
14 -0.001139756996817
15 0.010215483656091
16 0.48179225552813
17 -1.60272147244870
18 0.15135071550671
19 0.17769325091715
20 0.004661216361907
21 -0.55249231588894
22 1.83791797536133
23 -0.15321272129804
24 0.21617872470306
25 -0.005357954560057
26 0.070704224857194
27 -0.23520256832784
28 -0.034261537077909
29 -0.066829034685880
30 0.000688047435491
31 -0.000003621019920
32 0.000004588801240
33 0.000155916831143
34 -0.001418207152579
35 0.000000227762431
 Sym=     17.1
 Ene=       1.0705
 Spin= Alpha
 Occup=    0.000000
1 -0.80272920900590
2 -3.64093799699457
3 6.09683790185795
4 0.000003399149141
5 0.000001173661446
6 0.035778348791034
7 -0.000014138276040
8 -0.000001499870499
9 -0.029571568204365
10 0.017288704880748
11 0.017294350168832
12 -0.034583055049580
13 -0.000000855496157
14 -0.000000536858108
15 -0.000000866773659
16 -0.17259616467406
17 -0.84500313241714
18 0.092656514499855
19 0.15761910432515
20 0.005556980528390
21 -0.17259456973505
22 -0.84500844988766
23 0.090173002700496
24 -0.15905320305500
25 0.005565202208642
26 -0.17259760397394
27 -0.84501187207514
28 -0.18282948796963
29 0.001434571481597
30 0.005566519626422
31 0.19166485698660
32 -0.23782395149028
33 -0.000000652919116
34 -0.000000825592516
35 0.052771375222597
 Sym=     18.1
 Ene=       1.2143
 Spin= Alpha
 Occup=    0.000000
1 0.000001054199425
2 0.000004511601909
3 -0.000007308958457
4 0.000051835394246
5 -0.003595958864554
6 -0.000001304663360
7 0.000159538955093
8 -0.011071061175431
9 0.000002376585926
10 -0.000635516005123
11 0.000666850080208
12 -0.000031334075085
13 -0.019308972532911
14 -0.009025823082944
15 0.62633503007876
16 0.010016803540031
17 -0.002324617596516
18 -0.009420931708033
19 0.000938955709232
20 0.35453578338276
21 -0.010275188922545
22 0.002384913492514
23 0.008929647131743
24 0.000365390173586
25 -0.36376591415763
26 0.000262002425445
27 -0.000060686199473
28 0.000233835412311
29 0.016558959525378
30 0.009230485313523
31 -0.000008410224130
32 0.000010279959520
33 0.000031302019029
34 -0.002172817915249
35 -0.000001033814745
 Sym=     19.1
 Ene=       1.2143
 Spin= Alpha
 Occup=    0.000000
1 0.000001091884720
2 0.000004689297174
3 -0.000007583412821
4 -0.003595827249640
5 -0.000051809340094
6 -0.000000340802645
7 -0.011070814727635
8 -0.000159560013023
9 0.000002252460480
10 0.016759925162189
11 -0.016733626677900
12 -0.000026298484289
13 -0.000715119841707
14 0.62633599528583
15 0.009027102100385
16 0.006084576690755
17 -0.001411851480354
18 0.010984962972966
19 -0.009251073973842
20 0.21534881822390
21 0.005632977642265
22 -0.001307090392848
23 0.011537572649103
24 0.009115469961607
25 0.19936018438869
26 -0.011714124452164
27 0.002718970763056
28 -0.004659450980059
29 0.000393026902653
30 -0.41471194187562
31 -0.000007172545185
32 0.000008811694911
33 -0.002172809834730
34 -0.000031324878396
35 -0.000001027167565
 Sym=     20.1
 Ene=       1.5151
 Spin= Alpha
 Occup=    0.000000
1 0.000000044607123
2 0.000000206298197
3 -0.000000227088420
4 -0.005303480499877
5 0.003624029701324
6 0.000000077816450
7 -0.037491365220248
8 0.025627605205564
9 0.000000073369857
10 0.021462350978305
11 -0.021462269312776
12 -0.000000081665529
13 0.016096691591932
14 -0.001460128903811
15 0.000997624629458
16 -0.002758325870412
17 -0.001030344481192
18 0.021030213693069
19 -0.013147600499606
20 0.000168983870865
21 0.036389074161774
22 0.013579717175475
23 0.013912663044476
24 -0.002377271588245
25 -0.002231539555225
26 -0.033630860909059
27 -0.012549198514528
28 0.008143743688166
29 -0.013924508124203
30 0.002062355136736
31 0.000000015730264
32 -0.000000020512317
33 -0.82458791014052
34 0.56359096184654
35 0.000000172643856
 Sym=     21.1
 Ene=       1.5151
 Spin= Alpha
 Occup=    0.000000
1 -0.000001302688068
2 -0.000005751028239
3 0.000010251992262
4 0.003623089188253
5 0.005299750001838
6 -0.000000994848971
7 0.025627484596529
8 0.037499770388583
9 -0.000000860420615
10 -0.013939585429492
11 0.013939937565708
12 -0.000000352136216
13 0.024783361059707
14 0.000996933195107
15 0.001458102003078
16 -0.040422742056513
17 -0.015096256493902
18 -0.006483983085683
19 -0.007695198944454
20 0.002479374696637
21 0.017824654039596
22 0.006653677563223
23 -0.017256241680895
24 -0.014811237294412
25 -0.001091897376825
26 0.022599894670234
27 0.008434777221668
28 -0.005707668403834
29 -0.020579325138616
30 -0.001384854602371
31 -0.000000473286986
32 0.000000601041934
33 0.56359103064355
34 0.82458792364277
35 0.000000955046918
 Sym=     22.1
 Ene=       1.5261
 Spin= Alpha
 Occup=    0.000000
1 0.029841618158395
2 0.14317493113054
3 -0.16941801151795
4 -0.000002392515927
5 -0.000003098203454
6 -0.19105312178022
7 0.000009107662477
8 0.000011419336026
9 0.18827189958554
10 0.046703442201914
11 0.046710574175531
12 -0.093414016377444
13 0.000005334630494
14 -0.000003325931566
15 -0.000004254125749
16 -0.014609411433791
17 0.010896058745213
18 -0.003957347703001
19 -0.006730678518358
20 0.062526475530043
21 -0.014593856856311
22 0.010894821215419
23 -0.003853869711073
24 0.006790071260064
25 0.062524768301887
26 -0.014590739512363
27 0.010894297914403
28 0.007807139360319
29 -0.000064413719480
30 0.062523808894656
31 -0.063294006782902
32 0.087414284960369
33 -0.000000791415354
34 -0.000001372733401
35 0.98710252820411
 Sym=     23.1
 Ene=       1.6132
 Spin= Alpha
 Occup=    0.000000
1 0.000000000108679
2 0.000000000327823
3 -0.000000001004678
4 0.000000006270129
5 -0.000002745611471
6 -0.000000000119927
7 0.000003043060972
8 0.000055170046583
9 -0.000000001531297
10 -0.000000728972568
11 0.000000728199293
12 0.000000000773275
13 0.000025011319117
14 0.000000047314381
15 0.000000717659920
16 -0.000053666720134
17 0.000012328099030
18 0.51204094808767
19 -0.30101455613218
20 -0.000002107610888
21 0.000050521162313
22 -0.000011416044670
23 -0.51670198116380
24 -0.29294554850317
25 0.000019518764765
26 0.000003147724192
27 -0.000000913014135
28 0.004658197111660
29 0.59391413925390
30 -0.000017409532934
31 -0.000000000109626
32 0.000000000069951
33 -0.000000255161669
34 -0.000004241239013
35 -0.000000000427358
 Sym=     24.1
 Ene=       1.7162
 Spin= Alpha
 Occup=    0.000000
1 0.000000060156174
2 0.000000755796370
3 0.000000267971704
4 -0.000027174465805
5 0.029545607889149
6 -0.000004675055067
7 0.001091151092143
8 -1.18321559852919
9 0.000036779728465
10 -0.010719272155660
11 0.010721010915234