[Molden Format]
[Molpro variables]
_NUMVAR=  727.0000000000000    
_EV2006= 0.3674930886769165E-01
_EV= 0.3674932534394180E-01
_KJOULE= 0.3808798324128737E-03
_KJOULE/MOL= 0.3808798324128737E-03
_CM= 0.4556335267302901E-05
_CM-1= 0.4556335267302901E-05
_KCAL= 0.1593601117815568E-02
_KCAL/MOL= 0.1593601117815568E-02
_KELVIN2006= 0.3166828861084835E-05
_KELVIN= 0.3166814820820034E-05
_HERTZ2006= 0.1519829850815779E-15
_HERTZ= 0.1519829846011223E-15
_HZ2006= 0.1519829850815779E-15
_HZ= 0.1519829846011223E-15
_TOA2006= 0.5291772490000000    
_TOA= 0.5291772090000000    
_TOANG2006= 0.5291772490000000    
_TOANG= 0.5291772090000000    
_TORAD= 0.1745329251994330E-01
_TOCM=  219474.6306700000    
_TODEBYE=  2.541580000000000    
_TOEV2006=  27.21139610000000    
_TOEV=  27.21138390000000    
_TOHERTZ2006=  6579683899900000.    
_TOHERTZ=  6579683920700000.    
_TOHZ2006=  6579683899900000.    
_TOHZ=  6579683920700000.    
_TOK2006=  315773.3000000000    
_TOK=  315774.7000000000    
_TOKCAL=  627.5096000000000    
_TOKELVIN2006=  315773.3000000000    
_TOKELVIN=  315774.7000000000    
_TOKJ=  2625.500000000000    
_TOKJOULE=  2625.500000000000    
_ANG2006=  1.889725988578923    
_ANG=  1.889726131421507    
_ANGSTROM2006=  1.889725988578923    
_ANGSTROM=  1.889726131421507    
_IGNORE_UNDEF=  2.000000000000000    
_STRICTCHECK=  0.000000000000000    
_SEW_ONEEL=  0.000000000000000    
_CPPDONE=FALSE
_DKROLL_DONE=  0.000000000000000    
_FOCKDONE=  0.000000000000000    
_GRADONE=FALSE
_HESSDONE=TRUE
_INTDONE=TRUE
_SCFDONE=FALSE
_MODUL_CUDA=FALSE
_MODUL_SLATER=FALSE
_MODUL_MRCC=FALSE
_MRCC_EXEC=
_FITC_AO_SAVED=FALSE
_FITC_MO_SAVED=FALSE
_SHARED_FS=TRUE
_LSTYP=SEWARD
_INTYP=INTS
_GEOMTYP=ZMAT
_GRADTYP=ALASKA
_DIRECT=FALSE
_SYNCM=  0.000000000000000    
_BASIS=CC-PVTZ
_ZORIENT=  1.000000000000000    
_NELEC=  18.00000000000000    
_SPIN=  0.000000000000000    
!SPIN=  0.000000000000000    
_OPTCONV= 0.7455675376766336E-03
_QSDSTEP=  0.000000000000000    
_QSDIRC=  0.000000000000000    
_PROGRAM=FREQ
_CPUSTEP= 0.1000000000010459E-01
_SYSSTEP=  0.000000000000000    
_WALLSTEP= 0.9000000000000000E-01
!DFMP2=  0.000000000000000    
!DFSCF=  0.000000000000000    
!SCSGRD=  0.000000000000000    
_BASINP=  610.0000000000000    
_CPUTOT=  728.6900000000001    
_DFTEXFAC=  1.000000000000000    
_DMX= 0.1234909075903878E-09
_DMY= 0.1731244724922226E-07
_DMZ= 0.1288189982662962E-08
_FREQUENCIES= 0.5824518436239574E-04
_EMP2= -79.63014658669437    
_ENERGR= -79.27518350014873    
_ENERGU= -79.63014658669437    
_ENERGY= -79.63014658354584    
_ENUC=  42.34442421618192    
_FREQSTEP=  49.00000000000000    
!RS2GRSTATE=  1.000000000000000    
!RS2GRSYM=  1.000000000000000    
_GRADENERG= -79.63014205298785    
_GRADEXFAC=  9999.000000000000    
_GRADMETHOD=TRUE
_GRADRECORD=  5200.100000000000    
_VIRIAL= 0.2865778928954343E-02
!GRID_FREEZE= -1.000000000000000    
_ITERATIONS=  0.000000000000000    
_LASTNELEC=  2.000000000000000    
_LASTSPIN=  0.000000000000000    
_LASTSYM=  1.000000000000000    
_MPP_PROG=  1.000000000000000    
_NPROC_MPP=  4.000000000000000    
_NPROC_SMP=  1.000000000000000    
_NUMSTEP=  0.000000000000000    
_OPTCONVMX= 0.3641175043858470E-03
_OPTCONVRMS= 0.4142041875981298E-04
_OPTGRAD= 0.2723725116302990E-03
_OPTGRADMX= 0.1564379782356780E-03
_OPTGRADRMS= 0.1513180620168328E-04
_OPTSTEP=  3.000000000000000    
_ORBITAL=  2142.200000000000    
_PI=  3.141592653589793    
!MCACT=  2.000000000000000    
!MCCLOSED=  8.000000000000000    
!MCFREEZE=  0.000000000000000    
!MCMS2=  0.000000000000000    
!MCNEL=  2.000000000000000    
!MCNSTSYM=  1.000000000000000    
!MCSTATE=  1.000000000000000    
!MCSYM=  1.000000000000000    
!MCWEIGHT=  1.000000000000000    
_SEIG_MIN= 0.1185351200095996E-02
_SEWPROP=TRUE
_STATUS=  1.000000000000000    
_SYSTOT=  50.74000000000000    
_VERSION=  2010001.000000000    
_WALLTOT=  941.7400000000000    
_ZPE= 0.7564736908503976E-01
_DATE=20-Jun-18
_LASTORB=MCSCF
_MACHINE=Linux-2.6.34-12-desktop/tt113(x86_64) 64 bit mpp version
_OUTPUT=/home/carlo/qm/combustion/test_diss/c2h6/dist_24_tz/molpro.xml
_PGROUP=C1
_TIME=15:31:08
_LIBMOL=/programs/molpro2010p/bin/../lib/
!SURFREC=  0.000000000000000    
!POLYREC=  0.000000000000000    
!DIPREC=  0.000000000000000    
!VSCFREC=  0.000000000000000    
!VCIREC=  0.000000000000000    
!PVCIREC=  0.000000000000000    
!VMP2REC=  0.000000000000000    
!VMCSCFREC=  0.000000000000000    
!GAREC=  0.000000000000000    
!SCFORB=  21002.00000000000    
!MCORB=  21422.00000000000    
!CIOCC=  10.00000000000000    
!CICORE=  2.000000000000000    
!CICLOS=  8.000000000000000    
!CIISTSYM=  1.000000000000000    
!CIISTMS2=  0.000000000000000    
!CIISTNEL=  14.00000000000000    
!NEWMOL=  0.000000000000000    
!NEWSYM=  0.000000000000000    
_SLFILES=slscratch
_NGSSTO=  9.000000000000000    
_SIN=SIN
_COS=COS
_TAN=TAN
_ACOS=ACOS
_ASIN=ASIN
_ATAN=ATAN
_COSH=COSH
_SINH=SINH
_TANH=TANH
_ABS=ABS
_MOD=MOD
_ERF=ERF
_REFC=REFC
_ERFC=ERFC
_HYPOT=HYPOT
_J0=J0
_J1=J1
_JN=JN
_GAMMA=GAMMA
_LGAMMA=LGAMMA
_Y0=Y0
_Y1=Y1
_YN=YN
_EXP=EXP
_LOG=LOG
_LOG10=LOG10
_SQRT=SQRT
_INT=INT
_NINT=NINT
_MAX=MAX
_MIN=MIN
_COSMO=  0.000000000000000    
_COSMOIT=  0.000000000000000    
_COSMOES=  0.000000000000000    
_COSMOEDS=  0.000000000000000    
_COSMOEC=  0.000000000000000    
_COSMOEDCORR=  0.000000000000000    
_FEPSI=  1.000000000000000    
_SL_IsMM=  0.000000000000000    
_SL_NSYM=  0.000000000000000    
_SL_System_BitSw=  0.000000000000000    
_SL_Unique_atoms=  0.000000000000000    
_SL_GRAD=  0.000000000000000    
_SL_MAXUPD_Hess=  5.000000000000000    
_SL_N_PRINT_COD=  5.000000000000000    
_SL_PRINT_CODES=  0.000000000000000    
_SL_BasType=  0.000000000000000    
_SL_Energy_Pred=  0.000000000000000    
_SL_New_Coords=  0.000000000000000    
_SL_Total_Nuclea=  0.000000000000000    
_SL_Highest_Mltp=  0.000000000000000    
_SL_Ref_Geom=  0.000000000000000    
!LATTICE= -1.000000000000000    
!NEWLATTICE=  0.000000000000000    
!LATGRAD_VAR=FALSE
!SEW_LATTICE=  1.000000000000000    
!LOCAL=  0.000000000000000    
!SAVEDOM= -1.000000000000000    
!RESTDOM= -1.000000000000000    
!SAVEDOM_HF= -1.000000000000000    
!RESTDOM_HF= -1.000000000000000    
!HESSREC=  5300.200000000000    
!FREQREC=  5400.200000000000    
!NMODREC=  5450.200000000000    
!GTASKS=  0.000000000000000    
!HTASKS=  5500.200000000000    
!THRCHG= 0.1000000000000000    
!DEBUG= -1.000000000000000    
!CFIT_CPHF=  0.000000000000000    
!RDOMAUX_CPHF=  3.000000000000000    
!THRAO_CPHF= 0.1000000000000000E-09
!THRMO_CPHF= 0.1000000000000000E-09
!THROV_CPHF= 0.1000000000000000E-11
!THRSW_CPHF= 0.1000000000000000E-09
!THRPROD_CPHF= 0.1000000000000000E-09
!THRAOPR_CPHF= 0.1000000000000000E-11
!CFIT_SCFGRD=  0.000000000000000    
!RDOMAUX_SCFGRD=  5.000000000000000    
!THRAO_SCFGRD= 0.1000000000000000E-09
!THRMO_SCFGRD= 0.1000000000000000E-09
!THROV_SCFGRD= 0.1000000000000000E-11
!THRSW_SCFGRD= 0.1000000000000000E-09
!THRPROD_SCFGRD= 0.1000000000000000E-09
!THRAOPR_SCFGRD= 0.1000000000000000E-11
!LOCFIT_SCF=  0.000000000000000    
!LOCFIT_MP2= -1.000000000000000    
_RIDOM=  0.000000000000000    
!CC2_METHOD=  0.000000000000000    
_BASIS2006=FALSE
_SVDDEL= -1.000000000000000    
_SVDDELA= -1.000000000000000    
_SVDDELP= -1.000000000000000    
_SVDDELF= -1.000000000000000    
_SVDDELS= -1.000000000000000    
_SVDDEL_ABS= -1.000000000000000    
_SVDDELA_ABS= -1.000000000000000    
_SVDDELP_ABS= -1.000000000000000    
_SVDDELF_ABS= -1.000000000000000    
_SVDDELS_ABS= -1.000000000000000    
_MAXBASIS=  0.000000000000000    
!OPT_CONICAL=  0.000000000000000    
!CLEARSP_JGRID=  0.000000000000000    
RCC2=  1.088219900203131    
RCC3=  1.088219902613802    
RCC4=  1.088219898022253    
RCH1=  1.088219900120066    
RCH2=  1.088219900287689    
RCH3=  1.088219899941254    
ACCC1=  111.2384236725511    
AHCC1=  111.2384218253226    
AHCC2=  111.2384197914671    
AHCC3=  111.2384236542540    
AHCC4=  111.2383963642910    
AHCC5=  111.2383945571264    
B1=  120.0000146258701    
B5= -119.9999891086633    
B3=  120.0000069674822    
B4= -119.9999963406633    
B2=  59.99861925596060    
RCC1=  1.525787468424713    
GX1=-0.1380322814738956E-07
GY1=-0.1576136579523296E-07
GZ1= -1.441660225324795    
GX2= 0.1369541078271570E-07
GY2=-0.3777933496767226E-08
GZ2=  1.441660224752851    
GX3= -1.916766539793118    
GY3=  0.000000000000000    
GZ3=  2.186604188211394    
GX4= 0.9583837383772161    
GY4= -1.659968315451524    
GZ4=  2.186604107542962    
GX5= 0.9583831734987180    
GY5=  1.659969040261829    
GZ5=  2.186603178374481    
GX6=-0.9584233282948386    
GY6=  1.659945463544845    
GZ6= -2.186604038366964    
GX7=  1.916766539521182    
GY7= 0.4593862706427345E-04
GZ7= -2.186604188229303    
GX8=-0.9583435820243669    
GY8= -1.659991894144423    
GZ8= -2.186603240717058    
C1X1=-0.1380322814728552E-07
C1Y1=-0.1576136579584109E-07
C1Z1= -1.441660225324795    
C2X2= 0.1369541078287406E-07
C2Y2=-0.3777933497289832E-08
C2Z2=  1.441660224752851    
H3X3= -1.916766539793118    
H3Y3=  0.000000000000000    
H3Z3=  2.186604188211394    
H4X4= 0.9583837383772161    
H4Y4= -1.659968315451524    
H4Z4=  2.186604107542962    
H41X5= 0.9583831734987180    
H41Y5=  1.659969040261829    
H41Z5=  2.186603178374481    
H5X6=-0.9584233282948386    
H5Y6=  1.659945463544845    
H5Z6= -2.186604038366964    
H6X7=  1.916766539521182    
H6Y7= 0.4593862706427261E-04
H6Z7= -2.186604188229303    
H7X8=-0.9583435820243669    
H7Y8= -1.659991894144423    
H7Z8= -2.186603240717058    
CBSEN= -79.63014658354584    
[Atoms] Angs
C     1    6        -0.0000000073       -0.0000000083       -0.7628937344
C     2    6         0.0000000072       -0.0000000020        0.7628937341
H     3    1        -1.0143091678        0.0000000000        1.1571011015
H     4    1         0.5071548318       -0.8784174002        1.1571010588
H     5    1         0.5071545329        0.8784177838        1.1571005671
H     6    1        -0.5071757819        0.8784053075       -1.1571010222
H     7    1         1.0143091677        0.0000243097       -1.1571011015
H     8    1        -0.5071335820       -0.8784298775       -1.1571006001
[GTO]
  1 0
 s   10  1.00
  0.8236000000D+04  0.5309998617D-03
  0.1235000000D+04  0.4107998930D-02
  0.2808000000D+03  0.2108699451D-01
  0.7927000000D+02  0.8185297868D-01
  0.2559000000D+02  0.2348169388D+00
  0.8997000000D+01  0.4344008869D+00
  0.3319000000D+01  0.3461289099D+00
  0.9059000000D+00  0.3937798974D-01
  0.3643000000D+00 -0.8982997660D-02
  0.1285000000D+00  0.2384999379D-02
 s   10  1.00
  0.8236000000D+04 -0.1129999414D-03
  0.1235000000D+04 -0.8779995449D-03
  0.2808000000D+03 -0.4539997647D-02
  0.7927000000D+02 -0.1813299060D-01
  0.2559000000D+02 -0.5575997110D-01
  0.8997000000D+01 -0.1268949342D+00
  0.3319000000D+01 -0.1703519117D+00
  0.9059000000D+00  0.1403819272D+00
  0.3643000000D+00  0.5986836897D+00
  0.1285000000D+00  0.3953887950D+00
 s   10  1.00
  0.8236000000D+04  0.0000000000D+00
  0.1235000000D+04  0.0000000000D+00
  0.2808000000D+03  0.0000000000D+00
  0.7927000000D+02  0.0000000000D+00
  0.2559000000D+02  0.0000000000D+00
  0.8997000000D+01  0.0000000000D+00
  0.3319000000D+01  0.0000000000D+00
  0.9059000000D+00  0.1000000000D+01
  0.3643000000D+00  0.0000000000D+00
  0.1285000000D+00  0.0000000000D+00
 s   10  1.00
  0.8236000000D+04  0.0000000000D+00
  0.1235000000D+04  0.0000000000D+00
  0.2808000000D+03  0.0000000000D+00
  0.7927000000D+02  0.0000000000D+00
  0.2559000000D+02  0.0000000000D+00
  0.8997000000D+01  0.0000000000D+00
  0.3319000000D+01  0.0000000000D+00
  0.9059000000D+00  0.0000000000D+00
  0.3643000000D+00  0.0000000000D+00
  0.1285000000D+00  0.1000000000D+01
 p    5  1.00
  0.1871000000D+02  0.1403099838D-01
  0.4133000000D+01  0.8686598995D-01
  0.1200000000D+01  0.2902159664D+00
  0.3827000000D+00  0.5010079421D+00
  0.1209000000D+00  0.3434059603D+00
 p    5  1.00
  0.1871000000D+02  0.0000000000D+00
  0.4133000000D+01  0.0000000000D+00
  0.1200000000D+01  0.0000000000D+00
  0.3827000000D+00  0.1000000000D+01
  0.1209000000D+00  0.0000000000D+00
 p    5  1.00
  0.1871000000D+02  0.0000000000D+00
  0.4133000000D+01  0.0000000000D+00
  0.1200000000D+01  0.0000000000D+00
  0.3827000000D+00  0.0000000000D+00
  0.1209000000D+00  0.1000000000D+01
 d    1  1.00
  0.1097000000D+01  0.1000000000D+01
 d    1  1.00
  0.3180000000D+00  0.1000000000D+01
 f    1  1.00
  0.7610000000D+00  0.1000000000D+01
  
  2 0
 s   10  1.00
  0.8236000000D+04  0.5309998617D-03
  0.1235000000D+04  0.4107998930D-02
  0.2808000000D+03  0.2108699451D-01
  0.7927000000D+02  0.8185297868D-01
  0.2559000000D+02  0.2348169388D+00
  0.8997000000D+01  0.4344008869D+00
  0.3319000000D+01  0.3461289099D+00
  0.9059000000D+00  0.3937798974D-01
  0.3643000000D+00 -0.8982997660D-02
  0.1285000000D+00  0.2384999379D-02
 s   10  1.00
  0.8236000000D+04 -0.1129999414D-03
  0.1235000000D+04 -0.8779995449D-03
  0.2808000000D+03 -0.4539997647D-02
  0.7927000000D+02 -0.1813299060D-01
  0.2559000000D+02 -0.5575997110D-01
  0.8997000000D+01 -0.1268949342D+00
  0.3319000000D+01 -0.1703519117D+00
  0.9059000000D+00  0.1403819272D+00
  0.3643000000D+00  0.5986836897D+00
  0.1285000000D+00  0.3953887950D+00
 s   10  1.00
  0.8236000000D+04  0.0000000000D+00
  0.1235000000D+04  0.0000000000D+00
  0.2808000000D+03  0.0000000000D+00
  0.7927000000D+02  0.0000000000D+00
  0.2559000000D+02  0.0000000000D+00
  0.8997000000D+01  0.0000000000D+00
  0.3319000000D+01  0.0000000000D+00
  0.9059000000D+00  0.1000000000D+01
  0.3643000000D+00  0.0000000000D+00
  0.1285000000D+00  0.0000000000D+00
 s   10  1.00
  0.8236000000D+04  0.0000000000D+00
  0.1235000000D+04  0.0000000000D+00
  0.2808000000D+03  0.0000000000D+00
  0.7927000000D+02  0.0000000000D+00
  0.2559000000D+02  0.0000000000D+00
  0.8997000000D+01  0.0000000000D+00
  0.3319000000D+01  0.0000000000D+00
  0.9059000000D+00  0.0000000000D+00
  0.3643000000D+00  0.0000000000D+00
  0.1285000000D+00  0.1000000000D+01
 p    5  1.00
  0.1871000000D+02  0.1403099838D-01
  0.4133000000D+01  0.8686598995D-01
  0.1200000000D+01  0.2902159664D+00
  0.3827000000D+00  0.5010079421D+00
  0.1209000000D+00  0.3434059603D+00
 p    5  1.00
  0.1871000000D+02  0.0000000000D+00
  0.4133000000D+01  0.0000000000D+00
  0.1200000000D+01  0.0000000000D+00
  0.3827000000D+00  0.1000000000D+01
  0.1209000000D+00  0.0000000000D+00
 p    5  1.00
  0.1871000000D+02  0.0000000000D+00
  0.4133000000D+01  0.0000000000D+00
  0.1200000000D+01  0.0000000000D+00
  0.3827000000D+00  0.0000000000D+00
  0.1209000000D+00  0.1000000000D+01
 d    1  1.00
  0.1097000000D+01  0.1000000000D+01
 d    1  1.00
  0.3180000000D+00  0.1000000000D+01
 f    1  1.00
  0.7610000000D+00  0.1000000000D+01
  
  3 0
 s    5  1.00
  0.3387000000D+02  0.6067999217D-02
  0.5095000000D+01  0.4530799416D-01
  0.1159000000D+01  0.2028219738D+00
  0.3258000000D+00  0.5039029350D+00
  0.1027000000D+00  0.3834209505D+00
 s    5  1.00
  0.3387000000D+02  0.0000000000D+00
  0.5095000000D+01  0.0000000000D+00
  0.1159000000D+01  0.0000000000D+00
  0.3258000000D+00  0.1000000000D+01
  0.1027000000D+00  0.0000000000D+00
 s    5  1.00
  0.3387000000D+02  0.0000000000D+00
  0.5095000000D+01  0.0000000000D+00
  0.1159000000D+01  0.0000000000D+00
  0.3258000000D+00  0.0000000000D+00
  0.1027000000D+00  0.1000000000D+01
 p    1  1.00
  0.1407000000D+01  0.1000000000D+01
 p    1  1.00
  0.3880000000D+00  0.1000000000D+01
 d    1  1.00
  0.1057000000D+01  0.1000000000D+01
  
  4 0
 s    5  1.00
  0.3387000000D+02  0.6067999217D-02
  0.5095000000D+01  0.4530799416D-01
  0.1159000000D+01  0.2028219738D+00
  0.3258000000D+00  0.5039029350D+00
  0.1027000000D+00  0.3834209505D+00
 s    5  1.00
  0.3387000000D+02  0.0000000000D+00
  0.5095000000D+01  0.0000000000D+00
  0.1159000000D+01  0.0000000000D+00
  0.3258000000D+00  0.1000000000D+01
  0.1027000000D+00  0.0000000000D+00
 s    5  1.00
  0.3387000000D+02  0.0000000000D+00
  0.5095000000D+01  0.0000000000D+00
  0.1159000000D+01  0.0000000000D+00
  0.3258000000D+00  0.0000000000D+00
  0.1027000000D+00  0.1000000000D+01
 p    1  1.00
  0.1407000000D+01  0.1000000000D+01
 p    1  1.00
  0.3880000000D+00  0.1000000000D+01
 d    1  1.00
  0.1057000000D+01  0.1000000000D+01
  
  5 0
 s    5  1.00
  0.3387000000D+02  0.6067999217D-02
  0.5095000000D+01  0.4530799416D-01
  0.1159000000D+01  0.2028219738D+00
  0.3258000000D+00  0.5039029350D+00
  0.1027000000D+00  0.3834209505D+00
 s    5  1.00
  0.3387000000D+02  0.0000000000D+00
  0.5095000000D+01  0.0000000000D+00
  0.1159000000D+01  0.0000000000D+00
  0.3258000000D+00  0.1000000000D+01
  0.1027000000D+00  0.0000000000D+00
 s    5  1.00
  0.3387000000D+02  0.0000000000D+00
  0.5095000000D+01  0.0000000000D+00
  0.1159000000D+01  0.0000000000D+00
  0.3258000000D+00  0.0000000000D+00
  0.1027000000D+00  0.1000000000D+01
 p    1  1.00
  0.1407000000D+01  0.1000000000D+01
 p    1  1.00
  0.3880000000D+00  0.1000000000D+01
 d    1  1.00
  0.1057000000D+01  0.1000000000D+01
  
  6 0
 s    5  1.00
  0.3387000000D+02  0.6067999217D-02
  0.5095000000D+01  0.4530799416D-01
  0.1159000000D+01  0.2028219738D+00
  0.3258000000D+00  0.5039029350D+00
  0.1027000000D+00  0.3834209505D+00
 s    5  1.00
  0.3387000000D+02  0.0000000000D+00
  0.5095000000D+01  0.0000000000D+00
  0.1159000000D+01  0.0000000000D+00
  0.3258000000D+00  0.1000000000D+01
  0.1027000000D+00  0.0000000000D+00
 s    5  1.00
  0.3387000000D+02  0.0000000000D+00
  0.5095000000D+01  0.0000000000D+00
  0.1159000000D+01  0.0000000000D+00
  0.3258000000D+00  0.0000000000D+00
  0.1027000000D+00  0.1000000000D+01
 p    1  1.00
  0.1407000000D+01  0.1000000000D+01
 p    1  1.00
  0.3880000000D+00  0.1000000000D+01
 d    1  1.00
  0.1057000000D+01  0.1000000000D+01
  
  7 0
 s    5  1.00
  0.3387000000D+02  0.6067999217D-02
  0.5095000000D+01  0.4530799416D-01
  0.1159000000D+01  0.2028219738D+00
  0.3258000000D+00  0.5039029350D+00
  0.1027000000D+00  0.3834209505D+00
 s    5  1.00
  0.3387000000D+02  0.0000000000D+00
  0.5095000000D+01  0.0000000000D+00
  0.1159000000D+01  0.0000000000D+00
  0.3258000000D+00  0.1000000000D+01
  0.1027000000D+00  0.0000000000D+00
 s    5  1.00
  0.3387000000D+02  0.0000000000D+00
  0.5095000000D+01  0.0000000000D+00
  0.1159000000D+01  0.0000000000D+00
  0.3258000000D+00  0.0000000000D+00
  0.1027000000D+00  0.1000000000D+01
 p    1  1.00
  0.1407000000D+01  0.1000000000D+01
 p    1  1.00
  0.3880000000D+00  0.1000000000D+01
 d    1  1.00
  0.1057000000D+01  0.1000000000D+01
  
  8 0
 s    5  1.00
  0.3387000000D+02  0.6067999217D-02
  0.5095000000D+01  0.4530799416D-01
  0.1159000000D+01  0.2028219738D+00
  0.3258000000D+00  0.5039029350D+00
  0.1027000000D+00  0.3834209505D+00
 s    5  1.00
  0.3387000000D+02  0.0000000000D+00
  0.5095000000D+01  0.0000000000D+00
  0.1159000000D+01  0.0000000000D+00
  0.3258000000D+00  0.1000000000D+01
  0.1027000000D+00  0.0000000000D+00
 s    5  1.00
  0.3387000000D+02  0.0000000000D+00
  0.5095000000D+01  0.0000000000D+00
  0.1159000000D+01  0.0000000000D+00
  0.3258000000D+00  0.0000000000D+00
  0.1027000000D+00  0.1000000000D+01
 p    1  1.00
  0.1407000000D+01  0.1000000000D+01
 p    1  1.00
  0.3880000000D+00  0.1000000000D+01
 d    1  1.00
  0.1057000000D+01  0.1000000000D+01
 
 
[MO]
 Sym=      1.1
 Ene=     -11.2055
 Spin= Alpha
 Occup=    2.000000
1 0.70679519281307
2 0.000160441587800
3 0.001294257075192
4 0.001752447777615
5 -0.000000000711332
6 -0.000000000587812
7 -0.003275048648412
8 0.000000002429080
9 0.000000001550457
10 -0.000238220277866
11 0.000000001426639
12 0.000000001165274
13 0.000171134851237
14 0.000114195509903
15 0.000114195296589
16 -0.000228390806493
17 -0.000000000088800
18 -0.000000000214159
19 -0.000000000194344
20 0.000300298420630
21 0.000300296601653
22 -0.000600595022283
23 -0.000000000180845
24 -0.000000000293928
25 -0.000000000191474
26 0.000397567510931
27 -0.000000027537718
28 0.000117461201102
29 -0.000533392911787
30 0.000000036701029
31 -0.000078795543708
32 0.000000000123735
33 0.000000000244696
34 -0.000078795194522
35 0.000000000072135
36 0.70679491224439
37 0.000160442250666
38 0.001294256360370
39 0.001752444991829
40 0.000000000517249
41 0.000000000932294
42 0.003275048034245
43 -0.000000000874362
44 -0.000000001636075
45 0.000238221347995
46 -0.000000000554101
47 -0.000000001051509
48 -0.000171133676402
49 0.000114195463218
50 0.000114195367570
51 -0.000228390830788
52 -0.000000000106569
53 -0.000000000141841
54 -0.000000000206105
55 0.000300297979298
56 0.000300297560566
57 -0.000600595539864
58 -0.000000000806316
59 0.000000000085437
60 -0.000000000120072
61 -0.000397567431384
62 0.000000001616414
63 -0.000117460945837
64 0.000533392881260
65 -0.000000001917380
66 0.000078795327545
67 -0.000000000199932
68 -0.000000000251267
69 0.000078795068211
70 -0.000000000226969
71 0.001011056208306
72 -0.000975496785799
73 -0.000795402695186
74 -0.000193371572099
75 -0.000000000181775
76 0.000124732963094
77 -0.000190558463572
78 0.000000001584025
79 0.000339766192854
80 -0.000102644530204
81 0.000106282393662
82 -0.000003637863458
83 0.000000000520553
84 0.000166871924700
85 -0.000000000549907
86 0.001011056527969
87 -0.000975497382775
88 -0.000795402752097
89 0.000096686009971
90 -0.000167464597205
91 0.000124732964107
92 0.000095277847444
93 -0.000165029325845
94 0.000339766199048
95 0.000054051016380
96 -0.000050413162278
97 -0.000003637854102
98 0.000104463217070
99 -0.000083435523073
100 0.000144515557179
101 0.001011055620909
102 -0.000975493422312
103 -0.000795401319298
104 0.000096685614207
105 0.000167464835764
106 0.000124732888701
107 0.000095279919440
108 0.000165026496717
109 0.000339765204806
110 0.000054050107442
111 -0.000050412421284
112 -0.000003637686158
113 -0.000104463527667
114 -0.000083436252240
115 -0.000144514812598
116 0.001011057189585
117 -0.000975496450040
118 -0.000795402948164
119 -0.000096689644282
120 0.000167462494384
121 -0.000124732948134
122 -0.000095284476768
123 0.000165024909845
124 -0.000339765808658
125 0.000054045843407
126 -0.000050408038617
127 -0.000003637804790
128 0.000104466614773
129 -0.000083439876518
130 0.000144512990577
131 0.001011057006289
132 -0.000975498966474
133 -0.000795403560144
134 0.000193371688152
135 0.000000004439103
136 -0.000124732981371
137 0.000190559075144
138 0.000000005876093
139 -0.000339766545483
140 -0.000102644646369
141 0.000106282480480
142 -0.000003637834111
143 -0.000000006214812
144 0.000166872032517
145 0.000000004497312
146 0.001011055776370
147 -0.000975492596016
148 -0.000795401060335
149 -0.000096681963810
150 -0.000167466991065
151 -0.000124732896959
152 -0.000095272741756
153 -0.000165030035096
154 -0.000339764976250
155 0.000054055271992
156 -0.000050417560397
157 -0.000003637711596
158 -0.000104460072990
159 -0.000083431832773
160 -0.000144517319833
 Sym=      2.1
 Ene=     -11.2053
 Spin= Alpha
 Occup=    2.000000
1 0.70688004497257
2 0.002101665957833
3 0.001005363032672
4 0.003764490059182
5 0.000000000017783
6 0.000000000125449
7 -0.000562305265559
8 -0.000000000012563
9 -0.000000000203689
10 -0.000419112013747
11 -0.000000000253757
12 -0.000000000219922
13 0.000843933827014
14 0.000046525522927
15 0.000046525522134
16 -0.000093051045061
17 0.000000000009807
18 -0.000000000108177
19 -0.000000000112381
20 -0.000029082555157
21 -0.000029082659047
22 0.000058165214204
23 0.000000000093268
24 -0.000000000109835
25 -0.000000000210639
26 0.000315515300272
27 -0.000000024106372
28 0.000646478996500
29 -0.000423308321151
30 0.000000032195634
31 -0.000433671352974
32 0.000000000125542
33 0.000000000146458
34 -0.000433671236346
35 0.000000000086627
36 -0.70688032664262
37 -0.002101668165513
38 -0.001005363079804
39 -0.003764490778732
40 -0.000000000093239
41 -0.000000000230770
42 -0.000562306571733
43 0.000000000583428
44 -0.000000000024776
45 -0.000419112515245
46 0.000000000189053
47 -0.000000000367751
48 0.000843933807901
49 -0.000046525605517
50 -0.000046525579344
51 0.000093051184860
52 0.000000000063392
53 0.000000000144732
54 0.000000000162934
55 0.000029082044294
56 0.000029082696526
57 -0.000058164740820
58 0.000000000160754
59 0.000000000050899
60 -0.000000000138903
61 0.000315515579736
62 0.000000001027365
63 0.000646479081978
64 -0.000423308649896
65 -0.000000001566237
66 -0.000433671455031
67 0.000000000079345
68 0.000000000187883
69 -0.000433671248969
70 0.000000000258070
71 -0.000531847687770
72 0.001046351539231
73 0.000728154977687
74 0.000237424920073
75 0.000000000115043
76 -0.000070481480075
77 0.000360816920025
78 0.000000001215013
79 -0.000033995578687
80 0.000199061164470
81 -0.000090670526041
82 -0.000108390638429
83 0.000000000551547
84 -0.000112096378201
85 -0.000000000490080
86 -0.000531847106032
87 0.001046349989949
88 0.000728154483811
89 -0.000118712607720
90 0.000205615914344
91 -0.000070481457296
92 -0.000180409073108
93 0.000312475710723
94 -0.000033995247782
95 -0.000018237167307
96 0.000126627822086
97 -0.000108390654779
98 -0.000144866080751
99 0.000056048590749
100 -0.000097077944275
101 -0.000531848370851
102 0.001046350823089
103 0.000728155377276
104 -0.000118712264119
105 -0.000205615997114
106 -0.000070481236999
107 -0.000180407340599
108 -0.000312476925974
109 -0.000033995004591
110 -0.000018237991093
111 0.000126628691555
112 -0.000108390700461
113 0.000144865589608
114 0.000056047554675
115 0.000097078267488
116 0.000531847469878
117 -0.001046349804443
118 -0.000728154521477
119 -0.000118717245763
120 0.000205613029761
121 -0.000070481370508
122 -0.000180414744278
123 0.000312472289807
124 -0.000033994934851
125 0.000018231844458
126 -0.000126622505246
127 0.000108390660787
128 0.000144869520240
129 -0.000056049986918
130 0.000097077006881
131 0.000531847408211
132 -0.001046349974646
133 -0.000728154322999
134 0.000237424769481
135 0.000000005571970
136 -0.000070481417220
137 0.000360816319282
138 0.000000007563941
139 -0.000033995036826
140 -0.000199061065767
141 0.000090670416546
142 0.000108390649222
143 -0.000000007503165
144 0.000112096202300
145 0.000000002182109
146 0.000531846925903
147 -0.001046349242159
148 -0.000728154645111
149 -0.000118707542802
150 -0.000205618658253
151 -0.000070481201885
152 -0.000180401483400
153 -0.000312479883716
154 -0.000033994878186
155 0.000018243219699
156 -0.000126633879196
157 0.000108390659497
158 -0.000144862005604
159 -0.000056046063514
160 -0.000097079033085
 Sym=      3.1
 Ene=      -0.9052
 Spin= Alpha
 Occup=    2.000000
1 -0.011525416915197
2 0.47362968098408
3 -0.012058640914793
4 -0.088990876170957
5 -0.000000030626065
6 -0.000000035570417
7 -0.21073638730371
8 -0.000000000662059
9 0.000000005788050
10 0.003441134884363
11 -0.000000000157645
12 0.000000003795086
13 0.014288616139352
14 0.002194997798014
15 0.002194998887066
16 -0.004389996685080
17 0.000000000191622
18 -0.000000001341777
19 -0.000000001632470
20 0.004886267737158
21 0.004886270333073
22 -0.009772538070231
23 0.000000000240174
24 -0.000000002272675
25 -0.000000006025525
26 0.003499979409165
27 -0.000000251452228
28 0.003460899509267
29 -0.004695717085526
30 0.000000335221734
31 -0.002321642589274
32 0.000000001958280
33 0.000000002136830
34 -0.002321641350337
35 0.000000000955117
36 -0.011525416585013
37 0.47362968187798
38 -0.012058641042924
39 -0.088990878169313
40 0.000000029379099
41 0.000000059644214
42 0.21073638696205
43 0.000000001577665
44 0.000000005914541
45 -0.003441133150916
46 -0.000000000748316
47 0.000000000400045
48 -0.014288613728979
49 0.002194997878025
50 0.002194998841752
51 -0.004389996719778
52 -0.000000000062147
53 -0.000000001340684
54 -0.000000001313364
55 0.004886267562045
56 0.004886271129372
57 -0.009772538691417
58 0.000000001954238
59 -0.000000002065190
60 -0.000000001893992
61 -0.003499979466586
62 0.000000005268285
63 -0.003460899460450
64 0.004695717174062
65 -0.000000004412229
66 0.002321642408955
67 -0.000000001969779
68 -0.000000002655917
69 0.002321641465160
70 -0.000000001524590
71 0.29116442461126
72 -0.064394851333565
73 -0.089028533970185
74 0.006327745720842
75 -0.000000000192252
76 -0.000868605069783
77 0.002792901357091
78 0.000000005519014
79 0.002750829433242
80 0.001095325834591
81 -0.000523807807037
82 -0.000571518027554
83 0.000000000930607
84 -0.000003035323513
85 -0.000000001383495
86 0.29116441493928
87 -0.064394844980152
88 -0.089028523481474
89 -0.003163873187860
90 0.005479987932646
91 -0.000868604510004
92 -0.001396455884740
93 0.002418722578881
94 0.002750828513598
95 -0.000119023520486
96 0.000690541566487
97 -0.000571518046000
98 -0.000809567502894
99 0.000001518958434
100 -0.000002627969355
101 0.29116443155863
102 -0.064394857412860
103 -0.089028518736008
104 -0.003163872440584
105 -0.005479988547087
106 -0.000868601578325
107 -0.001396443074907
108 -0.002418723330529
109 0.002750833484419
110 -0.000119025469193
111 0.000690543185340
112 -0.000571517716147
113 0.000809566018397
114 0.000001515815595
115 0.000002628405567
116 0.29116442797059
117 -0.064394859321067
118 -0.089028533775055
119 0.003164005232973
120 -0.005479911928063
121 0.000868604569851
122 0.001396501555756
123 -0.002418690639014
124 -0.002750830861841
125 -0.000118991448932
126 0.000690509322920
127 -0.000571517873988
128 -0.000809588595990
129 0.000001516372173
130 -0.000002629004740
131 0.29116442218795
132 -0.064394849772616
133 -0.089028531091064
134 -0.006327745618395
135 -0.000000152448991
136 0.000868605022177
137 -0.002792901780425
138 -0.000000064174780
139 -0.002750829286264
140 0.001095325908724
141 -0.000523807833464
142 -0.000571518075259
143 0.000000044457603
144 -0.000003035379758
145 0.000000001318641
146 0.29116442153994
147 -0.064394843195443
148 -0.089028509764712
149 0.003163740389704
150 0.005480064729268
151 0.000868601708949
152 0.001396398341707
153 0.002418755579500
154 -0.002750831440491
155 -0.000119057541976
156 0.000690575471629
157 -0.000571517929653
158 0.000809545009820
159 0.000001518435503