
    -----------------------------------------------------------------------
          Psi4: An Open-Source Ab Initio Electronic Structure Package
                               Psi4 1.2.1 release

                         Git: Rev {HEAD} 406f4de 


    R. M. Parrish, L. A. Burns, D. G. A. Smith, A. C. Simmonett,
    A. E. DePrince III, E. G. Hohenstein, U. Bozkaya, A. Yu. Sokolov,
    R. Di Remigio, R. M. Richard, J. F. Gonthier, A. M. James,
    H. R. McAlexander, A. Kumar, M. Saitow, X. Wang, B. P. Pritchard,
    P. Verma, H. F. Schaefer III, K. Patkowski, R. A. King, E. F. Valeev,
    F. A. Evangelista, J. M. Turney, T. D. Crawford, and C. D. Sherrill,
    J. Chem. Theory Comput. 13(7) pp 3185--3197 (2017).
    (doi: 10.1021/acs.jctc.7b00174)


                         Additional Contributions by
    P. Kraus, H. Kruse, M. H. Lechner, M. C. Schieber, and R. A. Shaw

    -----------------------------------------------------------------------


    Psi4 started on: Tuesday, 05 January 2021 01:03PM

    Process ID: 23224
    Host:       b435
    PSIDATADIR: /home/elliott/miniconda2/envs/amech-env-mini/share/psi4
    Memory:     500.0 MiB
    Threads:    1
    
  ==> Input File <==

--------------------------------------------------------------------------
#! 
memory 1 GB

molecule {

0 2
C  
C  1    R1 
H  1    R2  2    A2 
H  1    R3  2    A3  3    D3 
H  1    R4  2    A4  3    D4 
H  2    R5  1    A5  3    D5 
H  2    R6  1    A6  6    D6 
H  2    R7  1    A7  6    D7 
X  3    R8  1    A8  2    D8 
O  3    R9  9    A9  1    D9 
H  10   R10  3   A10  9   D10 
R1   =   1.527073
R2   =   1.085501
R3   =   1.085501
R4   =   1.085501
R5   =   1.085501
R6   =   1.085501
R7   =   1.085501
R8   =   1.000000
R9   =   1.311311
R10  =   0.958509
A2   = 111.218000
A3   = 111.218000
A4   = 111.218000
A5   = 111.218000
A6   = 111.218000
A7   = 111.218000
A8   =  90.000000
A9   =  85.000000
A10  =  85.000000
D3   = 120.000000
D4   = 240.000000
D5   = 300.000000
D6   = 240.000000
D7   = 120.000000
D8   = 180.000000
D9   = 170.000000
D10  =  85.000000
}
set optking {
  frozen_distance = ("
    10 3
    9 3
  ")
  frozen_bend = ("
    9 3 1
  ")
  frozen_dihedral = ("
    9 3 1 2
  ")
}
set basis 6-31g*
set scf_type pk
set reference uhf
set mp2_type conv
set {
  intrafrag_step_limit     0.1
  intrafrag_step_limit_min 0.1
  intrafrag_step_limit_max 0.1
}
set full_hess_every 0
optimize('hf', dertype=1)
--------------------------------------------------------------------------

  Memory set to 953.674 MiB by Python driver.
gradient() will perform analytic gradient computation.

*** tstart() called on b435
*** at Tue Jan  5 13:03:02 2021

   => Loading Basis Set <=

    Name: 6-31G*
    Role: ORBITAL
    Keyword: BASIS
    atoms 1-2     entry C          line   111 file /home/elliott/miniconda2/envs/amech-env-mini/share/psi4/basis/6-31gs.gbs 
    atoms 3-8, 10 entry H          line    44 file /home/elliott/miniconda2/envs/amech-env-mini/share/psi4/basis/6-31gs.gbs 
    atoms 9       entry O          line   145 file /home/elliott/miniconda2/envs/amech-env-mini/share/psi4/basis/6-31gs.gbs 


         ---------------------------------------------------------
                                   SCF
            by Justin Turney, Rob Parrish, Andy Simmonett
                             and Daniel Smith
                              UHF Reference
                        1 Threads,    953 MiB Core
         ---------------------------------------------------------

  ==> Geometry <==

    Molecular point group: c1
    Full point group: C1

    Geometry (in Angstrom), charge = 0, multiplicity = 2:

       Center              X                  Y                   Z               Mass       
    ------------   -----------------  -----------------  -----------------  -----------------
         C           -0.061572463064    -0.785057899191    -0.136780847960    12.000000000000
         C           -0.061572463064    -0.785057899191     1.390292152040    12.000000000000
         H           -0.061572463064     0.226857148130    -0.529642602278     1.007825032070
         H            0.814771674388    -1.291015422852    -0.529642602278     1.007825032070
         H           -0.937916600515    -1.291015422852    -0.529642602278     1.007825032070
         H            0.814771674388    -0.279100375531     1.783153906358     1.007825032070
         H           -0.061572463064    -1.796972946512     1.783153906358     1.007825032070
         H           -0.937916600515    -0.279100375531     1.783153906358     1.007825032070
         O            0.165267809452     1.384759378996    -1.101781093591    15.994914619560
         H           -0.787219750853     1.428310980262    -1.199812764866     1.007825032070

  Running in c1 symmetry.

  Rotational constants: A =      0.95643  B =      0.16910  C =      0.15408 [cm^-1]
  Rotational constants: A =  28673.02377  B =   5069.39847  C =   4619.33300 [MHz]
  Nuclear repulsion =   77.985923305055479

  Charge       = 0
  Multiplicity = 2
  Electrons    = 27
  Nalpha       = 14
  Nbeta        = 13

  ==> Algorithm <==

  SCF Algorithm Type is PK.
  DIIS enabled.
  MOM disabled.
  Fractional occupation disabled.
  Guess Type is GWH.
  Energy threshold   = 1.00e-08
  Density threshold  = 1.00e-08
  Integral threshold = 0.00e+00

  ==> Primary Basis <==

  Basis Set: 6-31G*
    Blend: 6-31G*
    Number of shells: 32
    Number of basis function: 59
    Number of Cartesian functions: 59
    Spherical Harmonics?: false
    Max angular momentum: 2

  ==> Pre-Iterations <==

   -------------------------------------------------------
    Irrep   Nso     Nmo     Nalpha   Nbeta   Ndocc  Nsocc
   -------------------------------------------------------
     A         59      59       0       0       0       0
   -------------------------------------------------------
    Total      59      59      14      13      13       1
   -------------------------------------------------------

  ==> Integral Setup <==

  Using in-core PK algorithm.
   Calculation information:
      Number of atoms:                  10
      Number of AO shells:              32
      Number of primitives:             73
      Number of atomic orbitals:        59
      Number of basis functions:        59

      Integral cutoff                 1.00e-12
      Number of threads:                 1

  Performing in-core PK
  Using 3134670 doubles for integral storage.
  We computed 134399 shell quartets total.
  Whereas there are 139656 unique shell quartets.

  ==> DiskJK: Disk-Based J/K Matrices <==

    J tasked:                  Yes
    K tasked:                  Yes
    wK tasked:                  No
    Memory (MB):               715
    Schwarz Cutoff:          1E-12

    OpenMP threads:              1

  Minimum eigenvalue in the overlap matrix is 4.5932023260E-03.
  Using Symmetric Orthogonalization.

  SCF Guess: Generalized Wolfsberg-Helmholtz.

  ==> Iterations <==

                        Total Energy        Delta E     RMS |[F,P]|

   @UHF iter   1:  -152.42677081534634   -1.52427e+02   3.98027e-02 
   @UHF iter   2:  -153.16119953563367   -7.34429e-01   2.51626e-02 DIIS
   @UHF iter   3:  -154.04360854717964   -8.82409e-01   1.48026e-02 DIIS
   @UHF iter   4:  -154.50469858343723   -4.61090e-01   3.02016e-03 DIIS
   @UHF iter   5:  -154.54817376296620   -4.34752e-02   1.56931e-03 DIIS
   @UHF iter   6:  -154.56141119824898   -1.32374e-02   8.05333e-04 DIIS
   @UHF iter   7:  -154.56471125546796   -3.30006e-03   2.30639e-04 DIIS
   @UHF iter   8:  -154.56513322278249   -4.21967e-04   1.17391e-04 DIIS
   @UHF iter   9:  -154.56523103591104   -9.78131e-05   5.11375e-05 DIIS
   @UHF iter  10:  -154.56525121946638   -2.01836e-05   1.98318e-05 DIIS
   @UHF iter  11:  -154.56525378015451   -2.56069e-06   7.00735e-06 DIIS
   @UHF iter  12:  -154.56525418896592   -4.08811e-07   3.29000e-06 DIIS
   @UHF iter  13:  -154.56525433140769   -1.42442e-07   1.65415e-06 DIIS
   @UHF iter  14:  -154.56525437562681   -4.42191e-08   9.71500e-07 DIIS
   @UHF iter  15:  -154.56525439396319   -1.83364e-08   7.47692e-07 DIIS
   @UHF iter  16:  -154.56525440713705   -1.31739e-08   6.14639e-07 DIIS
   @UHF iter  17:  -154.56525442562113   -1.84841e-08   4.39720e-07 DIIS
   @UHF iter  18:  -154.56525443620242   -1.05813e-08   2.75341e-07 DIIS
   @UHF iter  19:  -154.56525443943323   -3.23081e-09   1.55327e-07 DIIS
   @UHF iter  20:  -154.56525444013178   -6.98549e-10   5.62997e-08 DIIS
   @UHF iter  21:  -154.56525444017799   -4.62137e-11   1.50117e-08 DIIS
   @UHF iter  22:  -154.56525444017973   -1.73372e-12   6.57176e-09 DIIS

  ==> Post-Iterations <==

   @Spin Contamination Metric:   1.831876821E-02
   @S^2 Expected:                7.500000000E-01
   @S^2 Observed:                7.683187682E-01
   @S   Expected:                5.000000000E-01
   @S   Observed:                5.000000000E-01

    Orbital Energies [Eh]
    ---------------------

    Alpha Occupied:                                                       

       1A    -20.624258     2A    -11.214575     3A    -11.211941  
       4A     -1.392429     5A     -1.031627     6A     -0.863567  
       7A     -0.709797     8A     -0.671317     9A     -0.602102  
      10A     -0.574574    11A     -0.546999    12A     -0.509899  
      13A     -0.492199    14A     -0.445417  

    Alpha Virtual:                                                        

      15A      0.216143    16A      0.261659    17A      0.305349  
      18A      0.314185    19A      0.329618    20A      0.337055  
      21A      0.404492    22A      0.508446    23A      0.708737  
      24A      0.729998    25A      0.735067    26A      0.835196  
      27A      0.857237    28A      0.938006    29A      1.059129  
      30A      1.075098    31A      1.154329    32A      1.160121  
      33A      1.180076    34A      1.195595    35A      1.204058  
      36A      1.220970    37A      1.254724    38A      1.324207  
      39A      1.445712    40A      1.654588    41A      1.764293  
      42A      1.794213    43A      1.849719    44A      2.010938  
      45A      2.025199    46A      2.044890    47A      2.167310  
      48A      2.275193    49A      2.299630    50A      2.359471  
      51A      2.620644    52A      2.654388    53A      2.678156  
      54A      2.793609    55A      2.882637    56A      3.017636  
      57A      4.028827    58A      4.615266    59A      4.830273  

    Beta Occupied:                                                        

       1A    -20.587153     2A    -11.212505     3A    -11.204610  
       4A     -1.260356     5A     -1.014226     6A     -0.839923  
       7A     -0.639407     8A     -0.599822     9A     -0.591765  
      10A     -0.516796    11A     -0.500366    12A     -0.492513  
      13A     -0.489314  

    Beta Virtual:                                                         

      14A      0.110557    15A      0.224963    16A      0.268060  
      17A      0.308866    18A      0.316816    19A      0.332171  
      20A      0.340165    21A      0.410379    22A      0.544240  
      23A      0.712361    24A      0.733793    25A      0.740501  
      26A      0.837743    27A      0.889002    28A      0.944793  
      29A      1.075307    30A      1.152626    31A      1.163942  
      32A      1.178375    33A      1.186263    34A      1.206296  
      35A      1.211591    36A      1.229147    37A      1.256717  
      38A      1.372448    39A      1.455891    40A      1.686147  
      41A      1.779818    42A      1.805593    43A      1.883719  
      44A      2.034853    45A      2.085058    46A      2.122562  
      47A      2.211558    48A      2.282872    49A      2.309904  
      50A      2.385495    51A      2.626185    52A      2.656960  
      53A      2.682804    54A      2.813199    55A      2.899027  
      56A      3.043105    57A      4.064120    58A      4.618695  
      59A      4.837894  

    Final Occupation by Irrep:
              A 
    DOCC [    13 ]
    SOCC [     1 ]

  Energy converged.

  @UHF Final Energy:  -154.56525444017973

   => Energetics <=

    Nuclear Repulsion Energy =             77.9859233050554792
    One-Electron Energy =                -364.2628984808250152
    Two-Electron Energy =                 131.7117207355898074
    Total Energy =                       -154.5652544401797002


  UHF NO Occupations:
  HONO-2 :   12  A 1.9985904
  HONO-1 :   13  A 1.9934384
  HONO-0 :   14  A 1.0000000
  LUNO+0 :   15  A 0.0065616
  LUNO+1 :   16  A 0.0014096
  LUNO+2 :   17  A 0.0005648
  LUNO+3 :   18  A 0.0002572



Properties will be evaluated at   0.000000,   0.000000,   0.000000 [a0]

Properties computed using the SCF density matrix

  Nuclear Dipole Moment: [e a0]
     X:    -1.0835      Y:    -3.0702      Z:     2.3953

  Electronic Dipole Moment: [e a0]
     X:     0.4132      Y:     2.9502      Z:    -2.3820

  Dipole Moment: [e a0]
     X:    -0.6703      Y:    -0.1200      Z:     0.0133     Total:     0.6811

  Dipole Moment: [D]
     X:    -1.7038      Y:    -0.3050      Z:     0.0338     Total:     1.7312


*** tstop() called on b435 at Tue Jan  5 13:03:03 2021
Module time:
	user time   =       0.80 seconds =       0.01 minutes
	system time =       0.03 seconds =       0.00 minutes
	total time  =          1 seconds =       0.02 minutes
Total time:
	user time   =       0.80 seconds =       0.01 minutes
	system time =       0.03 seconds =       0.00 minutes
	total time  =          1 seconds =       0.02 minutes

*** tstart() called on b435
*** at Tue Jan  5 13:03:03 2021


         ------------------------------------------------------------
                                   SCF GRAD                          
                          Rob Parrish, Justin Turney,                
                       Andy Simmonett, and Alex Sokolov              
         ------------------------------------------------------------

  ==> Geometry <==

    Molecular point group: c1
    Full point group: C1

    Geometry (in Angstrom), charge = 0, multiplicity = 2:

       Center              X                  Y                   Z               Mass       
    ------------   -----------------  -----------------  -----------------  -----------------
         C           -0.061572463064    -0.785057899191    -0.136780847960    12.000000000000
         C           -0.061572463064    -0.785057899191     1.390292152040    12.000000000000
         H           -0.061572463064     0.226857148130    -0.529642602278     1.007825032070
         H            0.814771674388    -1.291015422852    -0.529642602278     1.007825032070
         H           -0.937916600515    -1.291015422852    -0.529642602278     1.007825032070
         H            0.814771674388    -0.279100375531     1.783153906358     1.007825032070
         H           -0.061572463064    -1.796972946512     1.783153906358     1.007825032070
         H           -0.937916600515    -0.279100375531     1.783153906358     1.007825032070
         O            0.165267809452     1.384759378996    -1.101781093591    15.994914619560
         H           -0.787219750853     1.428310980262    -1.199812764866     1.007825032070

  Nuclear repulsion =   77.985923305055479

  ==> Basis Set <==

  Basis Set: 6-31G*
    Blend: 6-31G*
    Number of shells: 32
    Number of basis function: 59
    Number of Cartesian functions: 59
    Spherical Harmonics?: false
    Max angular momentum: 2

  ==> DirectJKGrad: Integral-Direct SCF Gradients <==

    Gradient:                    1
    J tasked:                  Yes
    K tasked:                  Yes
    wK tasked:                  No
    Integrals threads:           1
    Schwarz Cutoff:          0E+00


  -Total Gradient:
     Atom            X                  Y                   Z
    ------   -----------------  -----------------  -----------------
       1        0.003913733883     0.038326719337    -0.016722432549
       2       -0.000168800791    -0.001988007766     0.001042376010
       3       -0.004767319941     0.027940747378    -0.016708833796
       4        0.000159056507    -0.002758699941     0.001125715962
       5        0.001222431920     0.000849837468     0.000433209904
       6        0.000212810334    -0.000105175286     0.000566961915
       7        0.000134309027     0.000390807949     0.000196193825
       8        0.000271193653    -0.000042783409    -0.000464258713
       9        0.000144848057    -0.052286304751     0.025151960609
      10       -0.001122262649    -0.010327140980     0.005379106834


*** tstop() called on b435 at Tue Jan  5 13:03:04 2021
Module time:
	user time   =       1.30 seconds =       0.02 minutes
	system time =       0.00 seconds =       0.00 minutes
	total time  =          1 seconds =       0.02 minutes
Total time:
	user time   =       2.11 seconds =       0.04 minutes
	system time =       0.03 seconds =       0.00 minutes
	total time  =          2 seconds =       0.03 minutes
gradient() will perform analytic gradient computation.

*** tstart() called on b435
*** at Tue Jan  5 13:03:04 2021

   => Loading Basis Set <=

    Name: 6-31G*
    Role: ORBITAL
    Keyword: BASIS
    atoms 1-2     entry C          line   111 file /home/elliott/miniconda2/envs/amech-env-mini/share/psi4/basis/6-31gs.gbs 
    atoms 3-8, 10 entry H          line    44 file /home/elliott/miniconda2/envs/amech-env-mini/share/psi4/basis/6-31gs.gbs 
    atoms 9       entry O          line   145 file /home/elliott/miniconda2/envs/amech-env-mini/share/psi4/basis/6-31gs.gbs 


         ---------------------------------------------------------
                                   SCF
            by Justin Turney, Rob Parrish, Andy Simmonett
                             and Daniel Smith
                              UHF Reference
                        1 Threads,    953 MiB Core
         ---------------------------------------------------------

  ==> Geometry <==

    Molecular point group: c1
    Full point group: C1

    Geometry (in Angstrom), charge = 0, multiplicity = 2:

       Center              X                  Y                   Z               Mass       
    ------------   -----------------  -----------------  -----------------  -----------------
         C           -0.061572463064    -0.785057899191    -0.136780847960    12.000000000000
         C           -0.061572463064    -0.785057899191     1.390292152040    12.000000000000
         H           -0.061572463064     0.226857148130    -0.529642602278     1.007825032070
         H            0.814771674388    -1.291015422852    -0.529642602278     1.007825032070
         H           -0.937916600515    -1.291015422852    -0.529642602278     1.007825032070
         H            0.814771674388    -0.279100375531     1.783153906358     1.007825032070
         H           -0.061572463064    -1.796972946512     1.783153906358     1.007825032070
         H           -0.937916600515    -0.279100375531     1.783153906358     1.007825032070
         O            0.165267809452     1.384759378996    -1.101781093591    15.994914619560
         H           -0.787219750853     1.428310980262    -1.199812764866     1.007825032070

  Running in c1 symmetry.

  Rotational constants: A =      0.95643  B =      0.16910  C =      0.15408 [cm^-1]
  Rotational constants: A =  28673.02377  B =   5069.39847  C =   4619.33300 [MHz]
  Nuclear repulsion =   77.985923305055479

  Charge       = 0
  Multiplicity = 2
  Electrons    = 27
  Nalpha       = 14
  Nbeta        = 13

  ==> Algorithm <==

  SCF Algorithm Type is PK.
  DIIS enabled.
  MOM disabled.
  Fractional occupation disabled.
  Guess Type is GWH.
  Energy threshold   = 1.00e-08
  Density threshold  = 1.00e-08
  Integral threshold = 0.00e+00

  ==> Primary Basis <==

  Basis Set: 6-31G*
    Blend: 6-31G*
    Number of shells: 32
    Number of basis function: 59
    Number of Cartesian functions: 59
    Spherical Harmonics?: false
    Max angular momentum: 2

  ==> Pre-Iterations <==

   -------------------------------------------------------
    Irrep   Nso     Nmo     Nalpha   Nbeta   Ndocc  Nsocc
   -------------------------------------------------------
     A         59      59       0       0       0       0
   -------------------------------------------------------
    Total      59      59      14      13      13       1
   -------------------------------------------------------

  ==> Integral Setup <==

  Using in-core PK algorithm.
   Calculation information:
      Number of atoms:                  10
      Number of AO shells:              32
      Number of primitives:             73
      Number of atomic orbitals:        59
      Number of basis functions:        59

      Integral cutoff                 1.00e-12
      Number of threads:                 1

  Performing in-core PK
  Using 3134670 doubles for integral storage.
  We computed 134399 shell quartets total.
  Whereas there are 139656 unique shell quartets.

  ==> DiskJK: Disk-Based J/K Matrices <==

    J tasked:                  Yes
    K tasked:                  Yes
    wK tasked:                  No
    Memory (MB):               715
    Schwarz Cutoff:          1E-12

    OpenMP threads:              1

  Minimum eigenvalue in the overlap matrix is 4.5932023260E-03.
  Using Symmetric Orthogonalization.

  SCF Guess: Generalized Wolfsberg-Helmholtz.

  ==> Iterations <==

                        Total Energy        Delta E     RMS |[F,P]|

   @UHF iter   1:  -152.42677081534634   -1.52427e+02   3.98027e-02 
   @UHF iter   2:  -153.16119953563202   -7.34429e-01   2.51626e-02 DIIS
   @UHF iter   3:  -154.04360854717831   -8.82409e-01   1.48026e-02 DIIS
   @UHF iter   4:  -154.50469858343706   -4.61090e-01   3.02016e-03 DIIS
   @UHF iter   5:  -154.54817376296634   -4.34752e-02   1.56931e-03 DIIS
   @UHF iter   6:  -154.56141119824892   -1.32374e-02   8.05333e-04 DIIS
   @UHF iter   7:  -154.56471125546787   -3.30006e-03   2.30639e-04 DIIS
   @UHF iter   8:  -154.56513322278241   -4.21967e-04   1.17391e-04 DIIS
   @UHF iter   9:  -154.56523103591115   -9.78131e-05   5.11375e-05 DIIS
   @UHF iter  10:  -154.56525121946638   -2.01836e-05   1.98318e-05 DIIS
   @UHF iter  11:  -154.56525378015456   -2.56069e-06   7.00735e-06 DIIS
   @UHF iter  12:  -154.56525418896612   -4.08812e-07   3.29000e-06 DIIS
   @UHF iter  13:  -154.56525433140789   -1.42442e-07   1.65415e-06 DIIS
   @UHF iter  14:  -154.56525437562669   -4.42188e-08   9.71500e-07 DIIS
   @UHF iter  15:  -154.56525439396327   -1.83366e-08   7.47692e-07 DIIS
   @UHF iter  16:  -154.56525440713713   -1.31739e-08   6.14639e-07 DIIS
   @UHF iter  17:  -154.56525442562130   -1.84842e-08   4.39720e-07 DIIS
   @UHF iter  18:  -154.56525443620237   -1.05811e-08   2.75341e-07 DIIS
   @UHF iter  19:  -154.56525443943312   -3.23075e-09   1.55327e-07 DIIS
   @UHF iter  20:  -154.56525444013195   -6.98833e-10   5.62997e-08 DIIS
   @UHF iter  21:  -154.56525444017811   -4.61569e-11   1.50117e-08 DIIS
   @UHF iter  22:  -154.56525444017967   -1.56319e-12   6.57176e-09 DIIS

  ==> Post-Iterations <==

   @Spin Contamination Metric:   1.831876821E-02
   @S^2 Expected:                7.500000000E-01
   @S^2 Observed:                7.683187682E-01
   @S   Expected:                5.000000000E-01
   @S   Observed:                5.000000000E-01

    Orbital Energies [Eh]
    ---------------------

    Alpha Occupied:                                                       

       1A    -20.624258     2A    -11.214575     3A    -11.211941  
       4A     -1.392429     5A     -1.031627     6A     -0.863567  
       7A     -0.709797     8A     -0.671317     9A     -0.602102  
      10A     -0.574574    11A     -0.546999    12A     -0.509899  
      13A     -0.492199    14A     -0.445417  

    Alpha Virtual:                                                        

      15A      0.216143    16A      0.261659    17A      0.305349  
      18A      0.314185    19A      0.329618    20A      0.337055  
      21A      0.404492    22A      0.508446    23A      0.708737  
      24A      0.729998    25A      0.735067    26A      0.835196  
      27A      0.857237    28A      0.938006    29A      1.059129  
      30A      1.075098    31A      1.154329    32A      1.160121  
      33A      1.180076    34A      1.195595    35A      1.204058  
      36A      1.220970    37A      1.254724    38A      1.324207  
      39A      1.445712    40A      1.654588    41A      1.764293  
      42A      1.794213    43A      1.849719    44A      2.010938  
      45A      2.025199    46A      2.044890    47A      2.167310  
      48A      2.275193    49A      2.299630    50A      2.359471  
      51A      2.620644    52A      2.654388    53A      2.678156  
      54A      2.793609    55A      2.882637    56A      3.017636  
      57A      4.028827    58A      4.615266    59A      4.830273  

    Beta Occupied:                                                        

       1A    -20.587153     2A    -11.212505     3A    -11.204610  
       4A     -1.260356     5A     -1.014226     6A     -0.839923  
       7A     -0.639407     8A     -0.599822     9A     -0.591765  
      10A     -0.516796    11A     -0.500366    12A     -0.492513  
      13A     -0.489314  

    Beta Virtual:                                                         

      14A      0.110557    15A      0.224963    16A      0.268060  
      17A      0.308866    18A      0.316816    19A      0.332171  
      20A      0.340165    21A      0.410379    22A      0.544240  
      23A      0.712361    24A      0.733793    25A      0.740501  
      26A      0.837743    27A      0.889002    28A      0.944793  
      29A      1.075307    30A      1.152626    31A      1.163942  
      32A      1.178375    33A      1.186263    34A      1.206296  
      35A      1.211591    36A      1.229147    37A      1.256717  
      38A      1.372448    39A      1.455891    40A      1.686147  
      41A      1.779818    42A      1.805593    43A      1.883719  
      44A      2.034853    45A      2.085058    46A      2.122562  
      47A      2.211558    48A      2.282872    49A      2.309904  
      50A      2.385495    51A      2.626185    52A      2.656960  
      53A      2.682804    54A      2.813199    55A      2.899027  
      56A      3.043105    57A      4.064120    58A      4.618695  
      59A      4.837894  

    Final Occupation by Irrep:
              A 
    DOCC [    13 ]
    SOCC [     1 ]

  Energy converged.

  @UHF Final Energy:  -154.56525444017967

   => Energetics <=

    Nuclear Repulsion Energy =             77.9859233050554792
    One-Electron Energy =                -364.2628984808249015
    Two-Electron Energy =                 131.7117207355897506
    Total Energy =                       -154.5652544401796433


  UHF NO Occupations:
  HONO-2 :   12  A 1.9985904
  HONO-1 :   13  A 1.9934384
  HONO-0 :   14  A 1.0000000
  LUNO+0 :   15  A 0.0065616
  LUNO+1 :   16  A 0.0014096
  LUNO+2 :   17  A 0.0005648
  LUNO+3 :   18  A 0.0002572



Properties will be evaluated at   0.000000,   0.000000,   0.000000 [a0]

Properties computed using the SCF density matrix

  Nuclear Dipole Moment: [e a0]
     X:    -1.0835      Y:    -3.0702      Z:     2.3953

  Electronic Dipole Moment: [e a0]
     X:     0.4132      Y:     2.9502      Z:    -2.3820

  Dipole Moment: [e a0]
     X:    -0.6703      Y:    -0.1200      Z:     0.0133     Total:     0.6811

  Dipole Moment: [D]
     X:    -1.7038      Y:    -0.3050      Z:     0.0338     Total:     1.7312


*** tstop() called on b435 at Tue Jan  5 13:03:05 2021
Module time:
	user time   =       0.60 seconds =       0.01 minutes
	system time =       0.01 seconds =       0.00 minutes
	total time  =          1 seconds =       0.02 minutes
Total time:
	user time   =       2.71 seconds =       0.05 minutes
	system time =       0.05 seconds =       0.00 minutes
	total time  =          3 seconds =       0.05 minutes

*** tstart() called on b435
*** at Tue Jan  5 13:03:05 2021


         ------------------------------------------------------------
                                   SCF GRAD                          
                          Rob Parrish, Justin Turney,                
                       Andy Simmonett, and Alex Sokolov              
         ------------------------------------------------------------

  ==> Geometry <==

    Molecular point group: c1
    Full point group: C1

    Geometry (in Angstrom), charge = 0, multiplicity = 2:

       Center              X                  Y                   Z               Mass       
    ------------   -----------------  -----------------  -----------------  -----------------
         C           -0.061572463064    -0.785057899191    -0.136780847960    12.000000000000
         C           -0.061572463064    -0.785057899191     1.390292152040    12.000000000000
         H           -0.061572463064     0.226857148130    -0.529642602278     1.007825032070
         H            0.814771674388    -1.291015422852    -0.529642602278     1.007825032070
         H           -0.937916600515    -1.291015422852    -0.529642602278     1.007825032070
         H            0.814771674388    -0.279100375531     1.783153906358     1.007825032070
         H           -0.061572463064    -1.796972946512     1.783153906358     1.007825032070
         H           -0.937916600515    -0.279100375531     1.783153906358     1.007825032070
         O            0.165267809452     1.384759378996    -1.101781093591    15.994914619560
         H           -0.787219750853     1.428310980262    -1.199812764866     1.007825032070

  Nuclear repulsion =   77.985923305055479

  ==> Basis Set <==

  Basis Set: 6-31G*
    Blend: 6-31G*
    Number of shells: 32
    Number of basis function: 59
    Number of Cartesian functions: 59
    Spherical Harmonics?: false
    Max angular momentum: 2

  ==> DirectJKGrad: Integral-Direct SCF Gradients <==

    Gradient:                    1
    J tasked:                  Yes
    K tasked:                  Yes
    wK tasked:                  No
    Integrals threads:           1
    Schwarz Cutoff:          0E+00


  -Total Gradient:
     Atom            X                  Y                   Z
    ------   -----------------  -----------------  -----------------
       1        0.003913733883     0.038326719337    -0.016722432549
       2       -0.000168800791    -0.001988007766     0.001042376010
       3       -0.004767319941     0.027940747378    -0.016708833796
       4        0.000159056507    -0.002758699941     0.001125715962
       5        0.001222431920     0.000849837468     0.000433209904
       6        0.000212810334    -0.000105175286     0.000566961915
       7        0.000134309027     0.000390807949     0.000196193825
       8        0.000271193653    -0.000042783409    -0.000464258713
       9        0.000144848057    -0.052286304751     0.025151960609
      10       -0.001122262649    -0.010327140980     0.005379106834


*** tstop() called on b435 at Tue Jan  5 13:03:06 2021
Module time:
	user time   =       1.30 seconds =       0.02 minutes
	system time =       0.00 seconds =       0.00 minutes
	total time  =          1 seconds =       0.02 minutes
Total time:
	user time   =       4.01 seconds =       0.07 minutes
	system time =       0.05 seconds =       0.00 minutes
	total time  =          4 seconds =       0.07 minutes

  Based on options and gradient (rms=1.46E-02), recommend projecting translations and not projecting rotations.
hessian() will perform frequency computation by finite difference of analytic gradients.

-------------------------------------------------------------

  Using finite-differences of gradients to determine vibrational frequencies and 
  normal modes.  Resulting frequencies are only valid at stationary points.
	Generating geometries for use with 3-point formula.
	Displacement size will be 5.00e-03.
	Number of atoms is 10.
	Number of irreps is 1.
	Number of SALCS is 27.
	Translations projected? 1. Rotations projected? 0.
	Index of salcs per irrep:
	 1 :  0  1  2  3  4  5  6  7  8  9  10  11  12  13  14  15  16  17  18  19  20  21  22  23  24  25  26 
	Number of SALC's per irrep:
		 Irrep 1: 27
	Number of geometries (including reference) is 55.
	Number of displacements per irrep:
	  Irrep 1: 54

  //>>>>>>>>>>>>>>>>>>>>>>>>>>>>>>>>>>>//
  //    Loading displacement 1 of 55   //
  //<<<<<<<<<<<<<<<<<<<<<<<<<<<<<<<<<<<//
gradient() will perform analytic gradient computation.

*** tstart() called on b435
*** at Tue Jan  5 13:03:06 2021

   => Loading Basis Set <=

    Name: 6-31G*
    Role: ORBITAL
    Keyword: BASIS
    atoms 1-2     entry C          line   111 file /home/elliott/miniconda2/envs/amech-env-mini/share/psi4/basis/6-31gs.gbs 
    atoms 3-8, 10 entry H          line    44 file /home/elliott/miniconda2/envs/amech-env-mini/share/psi4/basis/6-31gs.gbs 
    atoms 9       entry O          line   145 file /home/elliott/miniconda2/envs/amech-env-mini/share/psi4/basis/6-31gs.gbs 


         ---------------------------------------------------------
                                   SCF
            by Justin Turney, Rob Parrish, Andy Simmonett
                             and Daniel Smith
                              UHF Reference
                        1 Threads,    953 MiB Core
         ---------------------------------------------------------

  ==> Geometry <==

    Molecular point group: c1
    Full point group: C1

    Geometry (in Angstrom), charge = 0, multiplicity = 2:

       Center              X                  Y                   Z               Mass       
    ------------   -----------------  -----------------  -----------------  -----------------
         C           -0.062231704079    -0.785057899191    -0.136780847960    12.000000000000
         C           -0.061346758008    -0.785057899191     1.390292152040    12.000000000000
         H           -0.061346758008     0.226857148130    -0.529642602278     1.007825032070
         H            0.814997379444    -1.291015422852    -0.529642602278     1.007825032070
         H           -0.937690895460    -1.291015422852    -0.529642602278     1.007825032070
         H            0.814997379444    -0.279100375531     1.783153906358     1.007825032070
         H           -0.061346758008    -1.796972946512     1.783153906358     1.007825032070
         H           -0.937690895460    -0.279100375531     1.783153906358     1.007825032070
         O            0.165493514507     1.384759378996    -1.101781093591    15.994914619560
         H           -0.786994045798     1.428310980262    -1.199812764866     1.007825032070

  Running in c1 symmetry.

  Rotational constants: A =      0.95639  B =      0.16910  C =      0.15408 [cm^-1]
  Rotational constants: A =  28671.75586  B =   5069.37690  C =   4619.27280 [MHz]
  Nuclear repulsion =   77.985666956798710

  Charge       = 0
  Multiplicity = 2
  Electrons    = 27
  Nalpha       = 14
  Nbeta        = 13

  ==> Algorithm <==

  SCF Algorithm Type is PK.
  DIIS enabled.
  MOM disabled.
  Fractional occupation disabled.
  Guess Type is GWH.
  Energy threshold   = 1.00e-08
  Density threshold  = 1.00e-08
  Integral threshold = 0.00e+00

  ==> Primary Basis <==

  Basis Set: 6-31G*
    Blend: 6-31G*
    Number of shells: 32
    Number of basis function: 59
    Number of Cartesian functions: 59
    Spherical Harmonics?: false
    Max angular momentum: 2

  ==> Pre-Iterations <==

   -------------------------------------------------------
    Irrep   Nso     Nmo     Nalpha   Nbeta   Ndocc  Nsocc
   -------------------------------------------------------
     A         59      59       0       0       0       0
   -------------------------------------------------------
    Total      59      59      14      13      13       1
   -------------------------------------------------------

  ==> Integral Setup <==

  Using in-core PK algorithm.
   Calculation information:
      Number of atoms:                  10
      Number of AO shells:              32
      Number of primitives:             73
      Number of atomic orbitals:        59
      Number of basis functions:        59

      Integral cutoff                 1.00e-12
      Number of threads:                 1

  Performing in-core PK
  Using 3134670 doubles for integral storage.
  We computed 134399 shell quartets total.
  Whereas there are 139656 unique shell quartets.

  ==> DiskJK: Disk-Based J/K Matrices <==

    J tasked:                  Yes
    K tasked:                  Yes
    wK tasked:                  No
    Memory (MB):               715
    Schwarz Cutoff:          1E-12

    OpenMP threads:              1

  Minimum eigenvalue in the overlap matrix is 4.5920135638E-03.
  Using Symmetric Orthogonalization.

  SCF Guess: Generalized Wolfsberg-Helmholtz.

  ==> Iterations <==

                        Total Energy        Delta E     RMS |[F,P]|

   @UHF iter   1:  -152.42673614737453   -1.52427e+02   3.98036e-02 
   @UHF iter   2:  -153.12607305799952   -6.99337e-01   2.52358e-02 DIIS
   @UHF iter   3:  -154.01634126963506   -8.90268e-01   1.51744e-02 DIIS
   @UHF iter   4:  -154.50139448352547   -4.85053e-01   3.05669e-03 DIIS
   @UHF iter   5:  -154.54724804438945   -4.58536e-02   1.60453e-03 DIIS
   @UHF iter   6:  -154.56123255016149   -1.39845e-02   8.28715e-04 DIIS
   @UHF iter   7:  -154.56469954672900   -3.46700e-03   2.36992e-04 DIIS
   @UHF iter   8:  -154.56513733563037   -4.37789e-04   1.18307e-04 DIIS
   @UHF iter   9:  -154.56523694239365   -9.96068e-05   5.08807e-05 DIIS
   @UHF iter  10:  -154.56525691484705   -1.99725e-05   2.01714e-05 DIIS
   @UHF iter  11:  -154.56525951793577   -2.60309e-06   7.11191e-06 DIIS
   @UHF iter  12:  -154.56525992006431   -4.02129e-07   3.16635e-06 DIIS
   @UHF iter  13:  -154.56526004408295   -1.24019e-07   1.47327e-06 DIIS
   @UHF iter  14:  -154.56526007390875   -2.98258e-08   7.40254e-07 DIIS
   @UHF iter  15:  -154.56526008193765   -8.02891e-09   5.10427e-07 DIIS
   @UHF iter  16:  -154.56526008577828   -3.84063e-09   4.05776e-07 DIIS
   @UHF iter  17:  -154.56526009104709   -5.26882e-09   3.19138e-07 DIIS
   @UHF iter  18:  -154.56526009605881   -5.01171e-09   2.31328e-07 DIIS
   @UHF iter  19:  -154.56526009879417   -2.73536e-09   1.53178e-07 DIIS
   @UHF iter  20:  -154.56526009989369   -1.09952e-09   5.93408e-08 DIIS
   @UHF iter  21:  -154.56526009997998   -8.62883e-11   1.54347e-08 DIIS
   @UHF iter  22:  -154.56526009998197   -1.98952e-12   6.68366e-09 DIIS

  ==> Post-Iterations <==

   @Spin Contamination Metric:   1.831641703E-02
   @S^2 Expected:                7.500000000E-01
   @S^2 Observed:                7.683164170E-01
   @S   Expected:                5.000000000E-01
   @S   Observed:                5.000000000E-01

    Orbital Energies [Eh]
    ---------------------

    Alpha Occupied:                                                       

       1A    -20.624268     2A    -11.214568     3A    -11.211939  
       4A     -1.392436     5A     -1.031624     6A     -0.863564  
       7A     -0.709806     8A     -0.671324     9A     -0.602085  
      10A     -0.574579    11A     -0.547006    12A     -0.509919  
      13A     -0.492159    14A     -0.445438  

    Alpha Virtual:                                                        

      15A      0.216145    16A      0.261659    17A      0.305368  
      18A      0.314184    19A      0.329621    20A      0.337050  
      21A      0.404489    22A      0.508477    23A      0.708735  
      24A      0.729924    25A      0.735161    26A      0.835221  
      27A      0.857229    28A      0.938000    29A      1.059079  
      30A      1.075037    31A      1.154429    32A      1.160079  
      33A      1.180173    34A      1.195549    35A      1.203979  
      36A      1.221023    37A      1.254719    38A      1.324202  
      39A      1.445789    40A      1.654718    41A      1.764341  
      42A      1.794350    43A      1.849539    44A      2.010891  
      45A      2.025191    46A      2.044867    47A      2.167238  
      48A      2.275215    49A      2.299595    50A      2.359459  
      51A      2.620645    52A      2.654352    53A      2.678269  
      54A      2.793581    55A      2.882662    56A      3.017734  
      57A      4.028988    58A      4.615279    59A      4.830280  

    Beta Occupied:                                                        

       1A    -20.587163     2A    -11.212503     3A    -11.204604  
       4A     -1.260360     5A     -1.014224     6A     -0.839923  
       7A     -0.639433     8A     -0.599713     9A     -0.591847  
      10A     -0.516798    11A     -0.500372    12A     -0.492511  
      13A     -0.489306  

    Beta Virtual:                                                         

      14A      0.110545    15A      0.224966    16A      0.268058  
      17A      0.308875    18A      0.316822    19A      0.332179  
      20A      0.340156    21A      0.410376    22A      0.544274  
      23A      0.712352    24A      0.733758    25A      0.740557  
      26A      0.837763    27A      0.888998    28A      0.944787  
      29A      1.075243    30A      1.152569    31A      1.164017  
      32A      1.178355    33A      1.186410    34A      1.206239  
      35A      1.211508    36A      1.229201    37A      1.256702  
      38A      1.372431    39A      1.455980    40A      1.686235  
      41A      1.779850    42A      1.805752    43A      1.883549  
      44A      2.034847    45A      2.085007    46A      2.122548  
      47A      2.211505    48A      2.282904    49A      2.309876  
      50A      2.385459    51A      2.626187    52A      2.656920  
      53A      2.682906    54A      2.813169    55A      2.899045  
      56A      3.043222    57A      4.064282    58A      4.618708  
      59A      4.837901  

    Final Occupation by Irrep:
              A 
    DOCC [    13 ]
    SOCC [     1 ]

  Energy converged.

  @UHF Final Energy:  -154.56526009998197

   => Energetics <=

    Nuclear Repulsion Energy =             77.9856669567987097
    One-Electron Energy =                -364.2623826483330731
    Two-Electron Energy =                 131.7114555915523795
    Total Energy =                       -154.5652600999819981


  UHF NO Occupations:
  HONO-2 :   12  A 1.9985904
  HONO-1 :   13  A 1.9934396
  HONO-0 :   14  A 1.0000000
  LUNO+0 :   15  A 0.0065604
  LUNO+1 :   16  A 0.0014096
  LUNO+2 :   17  A 0.0005648
  LUNO+3 :   18  A 0.0002572



Properties will be evaluated at   0.000000,   0.000000,   0.000000 [a0]

Properties computed using the SCF density matrix

  Nuclear Dipole Moment: [e a0]
     X:    -1.0821      Y:    -3.0702      Z:     2.3953

  Electronic Dipole Moment: [e a0]
     X:     0.4114      Y:     2.9503      Z:    -2.3821

  Dipole Moment: [e a0]
     X:    -0.6706      Y:    -0.1199      Z:     0.0132     Total:     0.6814

  Dipole Moment: [D]
     X:    -1.7046      Y:    -0.3048      Z:     0.0336     Total:     1.7320


*** tstop() called on b435 at Tue Jan  5 13:03:07 2021
Module time:
	user time   =       0.60 seconds =       0.01 minutes
	system time =       0.01 seconds =       0.00 minutes
	total time  =          1 seconds =       0.02 minutes
Total time:
	user time   =       4.62 seconds =       0.08 minutes
	system time =       0.06 seconds =       0.00 minutes
	total time  =          5 seconds =       0.08 minutes

*** tstart() called on b435
*** at Tue Jan  5 13:03:07 2021


         ------------------------------------------------------------
                                   SCF GRAD                          
                          Rob Parrish, Justin Turney,                
                       Andy Simmonett, and Alex Sokolov              
         ------------------------------------------------------------

  ==> Geometry <==

    Molecular point group: c1
    Full point group: C1

    Geometry (in Angstrom), charge = 0, multiplicity = 2:

       Center              X                  Y                   Z               Mass       
    ------------   -----------------  -----------------  -----------------  -----------------
         C           -0.062231704079    -0.785057899191    -0.136780847960    12.000000000000
         C           -0.061346758008    -0.785057899191     1.390292152040    12.000000000000
         H           -0.061346758008     0.226857148130    -0.529642602278     1.007825032070
         H            0.814997379444    -1.291015422852    -0.529642602278     1.007825032070
         H           -0.937690895460    -1.291015422852    -0.529642602278     1.007825032070
         H            0.814997379444    -0.279100375531     1.783153906358     1.007825032070
         H           -0.061346758008    -1.796972946512     1.783153906358     1.007825032070
         H           -0.937690895460    -0.279100375531     1.783153906358     1.007825032070
         O            0.165493514507     1.384759378996    -1.101781093591    15.994914619560
         H           -0.786994045798     1.428310980262    -1.199812764866     1.007825032070

  Nuclear repulsion =   77.985666956798710

  ==> Basis Set <==

  Basis Set: 6-31G*
    Blend: 6-31G*
    Number of shells: 32
    Number of basis function: 59
    Number of Cartesian functions: 59
    Spherical Harmonics?: false
    Max angular momentum: 2

  ==> DirectJKGrad: Integral-Direct SCF Gradients <==

    Gradient:                    1
    J tasked:                  Yes
    K tasked:                  Yes
    wK tasked:                  No
    Integrals threads:           1
    Schwarz Cutoff:          0E+00


  -Total Gradient:
     Atom            X                  Y                   Z
    ------   -----------------  -----------------  -----------------
       1        0.002855141067     0.038322081576    -0.016716809028
       2       -0.000005970238    -0.001988486916     0.001041753660
       3       -0.004686786442     0.027942201537    -0.016708525247
       4        0.000574879590    -0.002941653876     0.000992102483
       5        0.001633598704     0.001032974058     0.000564097581
       6        0.000208285598    -0.000107743460     0.000623024970
       7        0.000134482366     0.000390888034     0.000196429021
       8        0.000266763016    -0.000040128751    -0.000521121686
       9        0.000145810128    -0.052272189783     0.025146812460
      10       -0.001126203790    -0.010337942422     0.005382235786


*** tstop() called on b435 at Tue Jan  5 13:03:08 2021
Module time:
	user time   =       1.31 seconds =       0.02 minutes
	system time =       0.00 seconds =       0.00 minutes
	total time  =          1 seconds =       0.02 minutes
Total time:
	user time   =       5.93 seconds =       0.10 minutes
	system time =       0.06 seconds =       0.00 minutes
	total time  =          6 seconds =       0.10 minutes

  //>>>>>>>>>>>>>>>>>>>>>>>>>>>>>>>>>>>//
  //    Loading displacement 2 of 55   //
  //<<<<<<<<<<<<<<<<<<<<<<<<<<<<<<<<<<<//
gradient() will perform analytic gradient computation.

*** tstart() called on b435
*** at Tue Jan  5 13:03:08 2021

   => Loading Basis Set <=

    Name: 6-31G*
    Role: ORBITAL
    Keyword: BASIS
    atoms 1-2     entry C          line   111 file /home/elliott/miniconda2/envs/amech-env-mini/share/psi4/basis/6-31gs.gbs 
    atoms 3-8, 10 entry H          line    44 file /home/elliott/miniconda2/envs/amech-env-mini/share/psi4/basis/6-31gs.gbs 
    atoms 9       entry O          line   145 file /home/elliott/miniconda2/envs/amech-env-mini/share/psi4/basis/6-31gs.gbs 


         ---------------------------------------------------------
                                   SCF
            by Justin Turney, Rob Parrish, Andy Simmonett
                             and Daniel Smith
                              UHF Reference
                        1 Threads,    953 MiB Core
         ---------------------------------------------------------

  ==> Geometry <==

    Molecular point group: c1
    Full point group: C1

    Geometry (in Angstrom), charge = 0, multiplicity = 2:

       Center              X                  Y                   Z               Mass       
    ------------   -----------------  -----------------  -----------------  -----------------
         C           -0.060913222048    -0.785057899191    -0.136780847960    12.000000000000
         C           -0.061798168119    -0.785057899191     1.390292152040    12.000000000000
         H           -0.061798168119     0.226857148130    -0.529642602278     1.007825032070
         H            0.814545969333    -1.291015422852    -0.529642602278     1.007825032070
         H           -0.938142305571    -1.291015422852    -0.529642602278     1.007825032070
         H            0.814545969333    -0.279100375531     1.783153906358     1.007825032070
         H           -0.061798168119    -1.796972946512     1.783153906358     1.007825032070
         H           -0.938142305571    -0.279100375531     1.783153906358     1.007825032070
         O            0.165042104397     1.384759378996    -1.101781093591    15.994914619560
         H           -0.787445455908     1.428310980262    -1.199812764866     1.007825032070

  Running in c1 symmetry.

  Rotational constants: A =      0.95647  B =      0.16910  C =      0.15409 [cm^-1]
  Rotational constants: A =  28674.26994  B =   5069.41983  C =   4619.39277 [MHz]
  Nuclear repulsion =   77.986175204274716

  Charge       = 0
  Multiplicity = 2
  Electrons    = 27
  Nalpha       = 14
  Nbeta        = 13

  ==> Algorithm <==

  SCF Algorithm Type is PK.
  DIIS enabled.
  MOM disabled.
  Fractional occupation disabled.
  Guess Type is GWH.
  Energy threshold   = 1.00e-08
  Density threshold  = 1.00e-08
  Integral threshold = 0.00e+00

  ==> Primary Basis <==

  Basis Set: 6-31G*
    Blend: 6-31G*
    Number of shells: 32
    Number of basis function: 59
    Number of Cartesian functions: 59
    Spherical Harmonics?: false
    Max angular momentum: 2

  ==> Pre-Iterations <==

   -------------------------------------------------------
    Irrep   Nso     Nmo     Nalpha   Nbeta   Ndocc  Nsocc
   -------------------------------------------------------
     A         59      59       0       0       0       0
   -------------------------------------------------------
    Total      59      59      14      13      13       1
   -------------------------------------------------------

  ==> Integral Setup <==

  Using in-core PK algorithm.
   Calculation information:
      Number of atoms:                  10
      Number of AO shells:              32
      Number of primitives:             73
      Number of atomic orbitals:        59
      Number of basis functions:        59

      Integral cutoff                 1.00e-12
      Number of threads:                 1

  Performing in-core PK
  Using 3134670 doubles for integral storage.
  We computed 134398 shell quartets total.
  Whereas there are 139656 unique shell quartets.

  ==> DiskJK: Disk-Based J/K Matrices <==

    J tasked:                  Yes
    K tasked:                  Yes
    wK tasked:                  No
    Memory (MB):               715
    Schwarz Cutoff:          1E-12

    OpenMP threads:              1

  Minimum eigenvalue in the overlap matrix is 4.5943978692E-03.
  Using Symmetric Orthogonalization.

  SCF Guess: Generalized Wolfsberg-Helmholtz.

  ==> Iterations <==

                        Total Energy        Delta E     RMS |[F,P]|

   @UHF iter   1:  -152.42678992392712   -1.52427e+02   3.98018e-02 
   @UHF iter   2:  -153.19852715868404   -7.71737e-01   2.50728e-02 DIIS
   @UHF iter   3:  -154.07318372596933   -8.74657e-01   1.43925e-02 DIIS
   @UHF iter   4:  -154.50817212919202   -4.34988e-01   2.97878e-03 DIIS
   @UHF iter   5:  -154.54916118837320   -4.09891e-02   1.52668e-03 DIIS
   @UHF iter   6:  -154.56160474318597   -1.24436e-02   7.78615e-04 DIIS
   @UHF iter   7:  -154.56472166354439   -3.11692e-03   2.24258e-04 DIIS
   @UHF iter   8:  -154.56512747670979   -4.05813e-04   1.16464e-04 DIIS
   @UHF iter   9:  -154.56522352438668   -9.60477e-05   5.12505e-05 DIIS
   @UHF iter  10:  -154.56524376129681   -2.02369e-05   1.94143e-05 DIIS
   @UHF iter  11:  -154.56524625975453   -2.49846e-06   6.90244e-06 DIIS
   @UHF iter  12:  -154.56524667813949   -4.18385e-07   3.41281e-06 DIIS
   @UHF iter  13:  -154.56524684138134   -1.63242e-07   1.83161e-06 DIIS
   @UHF iter  14:  -154.56524690268435   -6.13030e-08   1.16875e-06 DIIS
   @UHF iter  15:  -154.56524693395335   -3.12690e-08   9.34586e-07 DIIS
   @UHF iter  16:  -154.56524696399225   -3.00389e-08   7.41437e-07 DIIS
   @UHF iter  17:  -154.56524699598828   -3.19960e-08   4.76544e-07 DIIS
   @UHF iter  18:  -154.56524700710793   -1.11197e-08   2.74271e-07 DIIS
   @UHF iter  19:  -154.56524700964212   -2.53419e-09   1.43193e-07 DIIS
   @UHF iter  20:  -154.56524701006060   -4.18481e-10   5.16746e-08 DIIS
   @UHF iter  21:  -154.56524701009090   -3.02975e-11   1.40202e-08 DIIS
   @UHF iter  22:  -154.56524701009221   -1.30740e-12   6.16928e-09 DIIS

  ==> Post-Iterations <==

   @Spin Contamination Metric:   1.832120448E-02
   @S^2 Expected:                7.500000000E-01
   @S^2 Observed:                7.683212045E-01
   @S   Expected:                5.000000000E-01
   @S   Observed:                5.000000000E-01

    Orbital Energies [Eh]
    ---------------------

    Alpha Occupied:                                                       

       1A    -20.624248     2A    -11.214583     3A    -11.211943  
       4A     -1.392422     5A     -1.031631     6A     -0.863570  
       7A     -0.709788     8A     -0.671309     9A     -0.602118  
      10A     -0.574569    11A     -0.546993    12A     -0.509884  
      13A     -0.492234    14A     -0.445395  

    Alpha Virtual:                                                        

      15A      0.216142    16A      0.261658    17A      0.305329  
      18A      0.314187    19A      0.329616    20A      0.337060  
      21A      0.404495    22A      0.508415    23A      0.708739  
      24A      0.730072    25A      0.734975    26A      0.835170  
      27A      0.857246    28A      0.938012    29A      1.059177  
      30A      1.075158    31A      1.154223    32A      1.160162  
      33A      1.179979    34A      1.195639    35A      1.204121  
      36A      1.220941    37A      1.254730    38A      1.324212  
      39A      1.445636    40A      1.654458    41A      1.764243  
      42A      1.794078    43A      1.849901    44A      2.010986  
      45A      2.025207    46A      2.044913    47A      2.167381  
      48A      2.275160    49A      2.299668    50A      2.359486  
      51A      2.620641    52A      2.654421    53A      2.678050  
      54A      2.793638    55A      2.882611    56A      3.017536  
      57A      4.028665    58A      4.615254    59A      4.830266  

    Beta Occupied:                                                        

       1A    -20.587143     2A    -11.212507     3A    -11.204617  
       4A     -1.260352     5A     -1.014228     6A     -0.839923  
       7A     -0.639380     8A     -0.599932     9A     -0.591684  
      10A     -0.516796    11A     -0.500361    12A     -0.492534  
      13A     -0.489299  

    Beta Virtual:                                                         

      14A      0.110568    15A      0.224961    16A      0.268062  
      17A      0.308857    18A      0.316811    19A      0.332163  
      20A      0.340173    21A      0.410382    22A      0.544206  
      23A      0.712369    24A      0.733826    25A      0.740447  
      26A      0.837722    27A      0.889007    28A      0.944799  
      29A      1.075371    30A      1.152679    31A      1.163865  
      32A      1.178393    33A      1.186117    34A      1.206341  
      35A      1.211669    36A      1.229115    37A      1.256734  
      38A      1.372465    39A      1.455802    40A      1.686059  
      41A      1.779782    42A      1.805437    43A      1.883889  
      44A      2.034858    45A      2.085108    46A      2.122577  
      47A      2.211611    48A      2.282830    49A      2.309938  
      50A      2.385531    51A      2.626180    52A      2.656996  
      53A      2.682709    54A      2.813229    55A      2.899008  
      56A      3.042987    57A      4.063958    58A      4.618683  
      59A      4.837887  

    Final Occupation by Irrep:
              A 
    DOCC [    13 ]
    SOCC [     1 ]

  Energy converged.

  @UHF Final Energy:  -154.56524701009221

   => Energetics <=

    Nuclear Repulsion Energy =             77.9861752042747156
    One-Electron Energy =                -364.2634003911423406
    Two-Electron Energy =                 131.7119781767754034
    Total Energy =                       -154.5652470100922073


  UHF NO Occupations:
  HONO-2 :   12  A 1.9985905
  HONO-1 :   13  A 1.9934371
  HONO-0 :   14  A 1.0000000
  LUNO+0 :   15  A 0.0065629
  LUNO+1 :   16  A 0.0014095
  LUNO+2 :   17  A 0.0005647
  LUNO+3 :   18  A 0.0002572



Properties will be evaluated at   0.000000,   0.000000,   0.000000 [a0]

Properties computed using the SCF density matrix

  Nuclear Dipole Moment: [e a0]
     X:    -1.0850      Y:    -3.0702      Z:     2.3953

  Electronic Dipole Moment: [e a0]
     X:     0.4150      Y:     2.9501      Z:    -2.3819

  Dipole Moment: [e a0]
     X:    -0.6700      Y:    -0.1201      Z:     0.0134     Total:     0.6808

  Dipole Moment: [D]
     X:    -1.7030      Y:    -0.3052      Z:     0.0340     Total:     1.7305


*** tstop() called on b435 at Tue Jan  5 13:03:09 2021
Module time:
	user time   =       0.60 seconds =       0.01 minutes
	system time =       0.01 seconds =       0.00 minutes
	total time  =          1 seconds =       0.02 minutes
Total time:
	user time   =       6.53 seconds =       0.11 minutes
	system time =       0.07 seconds =       0.00 minutes
	total time  =          7 seconds =       0.12 minutes

*** tstart() called on b435
*** at Tue Jan  5 13:03:09 2021


         ------------------------------------------------------------
                                   SCF GRAD                          
                          Rob Parrish, Justin Turney,                
                       Andy Simmonett, and Alex Sokolov              
         ------------------------------------------------------------

  ==> Geometry <==

    Molecular point group: c1
    Full point group: C1

    Geometry (in Angstrom), charge = 0, multiplicity = 2:

       Center              X                  Y                   Z               Mass       
    ------------   -----------------  -----------------  -----------------  -----------------
         C           -0.060913222048    -0.785057899191    -0.136780847960    12.000000000000
         C           -0.061798168119    -0.785057899191     1.390292152040    12.000000000000
         H           -0.061798168119     0.226857148130    -0.529642602278     1.007825032070
         H            0.814545969333    -1.291015422852    -0.529642602278     1.007825032070
         H           -0.938142305571    -1.291015422852    -0.529642602278     1.007825032070
         H            0.814545969333    -0.279100375531     1.783153906358     1.007825032070
         H           -0.061798168119    -1.796972946512     1.783153906358     1.007825032070
         H           -0.938142305571    -0.279100375531     1.783153906358     1.007825032070
         O            0.165042104397     1.384759378996    -1.101781093591    15.994914619560
         H           -0.787445455908     1.428310980262    -1.199812764866     1.007825032070

  Nuclear repulsion =   77.986175204274716

  ==> Basis Set <==

  Basis Set: 6-31G*
    Blend: 6-31G*
    Number of shells: 32
    Number of basis function: 59
    Number of Cartesian functions: 59
    Spherical Harmonics?: false
    Max angular momentum: 2

  ==> DirectJKGrad: Integral-Direct SCF Gradients <==

    Gradient:                    1
    J tasked:                  Yes
    K tasked:                  Yes
    wK tasked:                  No
    Integrals threads:           1
    Schwarz Cutoff:          0E+00


  -Total Gradient:
     Atom            X                  Y                   Z
    ------   -----------------  -----------------  -----------------
       1        0.004972320554     0.038328515832    -0.016729986951
       2       -0.000331635306    -0.001987426269     0.001043121115
       3       -0.004847879408     0.027939554406    -0.016709132239
       4       -0.000258209521    -0.002574535862     0.001260269462
       5        0.000812710767     0.000667902519     0.000303261326
       6        0.000217340294    -0.000102621710     0.000510889555
       7        0.000134135848     0.000390716655     0.000195954541
       8        0.000275616908    -0.000045452228    -0.000407404346
       9        0.000143923898    -0.052300304562     0.025157040298
      10       -0.001118324035    -0.010316348783     0.005375987240


*** tstop() called on b435 at Tue Jan  5 13:03:10 2021
Module time:
	user time   =       1.30 seconds =       0.02 minutes
	system time =       0.00 seconds =       0.00 minutes
	total time  =          1 seconds =       0.02 minutes
Total time:
	user time   =       7.83 seconds =       0.13 minutes
	system time =       0.07 seconds =       0.00 minutes
	total time  =          8 seconds =       0.13 minutes

  //>>>>>>>>>>>>>>>>>>>>>>>>>>>>>>>>>>>//
  //    Loading displacement 3 of 55   //
  //<<<<<<<<<<<<<<<<<<<<<<<<<<<<<<<<<<<//
gradient() will perform analytic gradient computation.

*** tstart() called on b435
*** at Tue Jan  5 13:03:10 2021

   => Loading Basis Set <=

    Name: 6-31G*
    Role: ORBITAL
    Keyword: BASIS
    atoms 1-2     entry C          line   111 file /home/elliott/miniconda2/envs/amech-env-mini/share/psi4/basis/6-31gs.gbs 
    atoms 3-8, 10 entry H          line    44 file /home/elliott/miniconda2/envs/amech-env-mini/share/psi4/basis/6-31gs.gbs 
    atoms 9       entry O          line   145 file /home/elliott/miniconda2/envs/amech-env-mini/share/psi4/basis/6-31gs.gbs 


         ---------------------------------------------------------
                                   SCF
            by Justin Turney, Rob Parrish, Andy Simmonett
                             and Daniel Smith
                              UHF Reference
                        1 Threads,    953 MiB Core
         ---------------------------------------------------------

  ==> Geometry <==

    Molecular point group: c1
    Full point group: C1

    Geometry (in Angstrom), charge = 0, multiplicity = 2:

       Center              X                  Y                   Z               Mass       
    ------------   -----------------  -----------------  -----------------  -----------------
         C           -0.061572463064    -0.785717140207    -0.136780847960    12.000000000000
         C           -0.061572463064    -0.784832194136     1.390292152040    12.000000000000
         H           -0.061572463064     0.227082853185    -0.529642602278     1.007825032070
         H            0.814771674388    -1.290789717797    -0.529642602278     1.007825032070
         H           -0.937916600515    -1.290789717797    -0.529642602278     1.007825032070
         H            0.814771674388    -0.278874670475     1.783153906358     1.007825032070
         H           -0.061572463064    -1.796747241457     1.783153906358     1.007825032070
         H           -0.937916600515    -0.278874670475     1.783153906358     1.007825032070
         O            0.165267809452     1.384985084051    -1.101781093591    15.994914619560
         H           -0.787219750853     1.428536685317    -1.199812764866     1.007825032070

  Running in c1 symmetry.

  Rotational constants: A =      0.95590  B =      0.16909  C =      0.15406 [cm^-1]
  Rotational constants: A =  28657.09564  B =   5069.04796  C =   4618.62922 [MHz]
  Nuclear repulsion =   77.981959789057768

  Charge       = 0
  Multiplicity = 2
  Electrons    = 27
  Nalpha       = 14
  Nbeta        = 13

  ==> Algorithm <==

  SCF Algorithm Type is PK.
  DIIS enabled.
  MOM disabled.
  Fractional occupation disabled.
  Guess Type is GWH.
  Energy threshold   = 1.00e-08
  Density threshold  = 1.00e-08
  Integral threshold = 0.00e+00

  ==> Primary Basis <==

  Basis Set: 6-31G*
    Blend: 6-31G*
    Number of shells: 32
    Number of basis function: 59
    Number of Cartesian functions: 59
    Spherical Harmonics?: false
    Max angular momentum: 2

  ==> Pre-Iterations <==

   -------------------------------------------------------
    Irrep   Nso     Nmo     Nalpha   Nbeta   Ndocc  Nsocc
   -------------------------------------------------------
     A         59      59       0       0       0       0
   -------------------------------------------------------
    Total      59      59      14      13      13       1
   -------------------------------------------------------

  ==> Integral Setup <==

  Using in-core PK algorithm.
   Calculation information:
      Number of atoms:                  10
      Number of AO shells:              32
      Number of primitives:             73
      Number of atomic orbitals:        59
      Number of basis functions:        59

      Integral cutoff                 1.00e-12
      Number of threads:                 1

  Performing in-core PK
  Using 3134670 doubles for integral storage.
  We computed 134397 shell quartets total.
  Whereas there are 139656 unique shell quartets.

  ==> DiskJK: Disk-Based J/K Matrices <==

    J tasked:                  Yes
    K tasked:                  Yes
    wK tasked:                  No
    Memory (MB):               715
    Schwarz Cutoff:          1E-12

    OpenMP threads:              1

  Minimum eigenvalue in the overlap matrix is 4.6000706036E-03.
  Using Symmetric Orthogonalization.

  SCF Guess: Generalized Wolfsberg-Helmholtz.

  ==> Iterations <==

                        Total Energy        Delta E     RMS |[F,P]|

   @UHF iter   1:  -152.42754031119898   -1.52428e+02   3.98019e-02 
   @UHF iter   2:  -153.31414219251673   -8.86602e-01   2.46941e-02 DIIS
   @UHF iter   3:  -154.16461898066080   -8.50477e-01   1.30630e-02 DIIS
   @UHF iter   4:  -154.51870485694877   -3.54086e-01   2.82279e-03 DIIS
   @UHF iter   5:  -154.55224956757223   -3.35447e-02   1.37040e-03 DIIS
   @UHF iter   6:  -154.56229666622454   -1.00471e-02   6.90777e-04 DIIS
   @UHF iter   7:  -154.56484885004238   -2.55218e-03   2.06710e-04 DIIS
   @UHF iter   8:  -154.56520655011923   -3.57700e-04   1.12303e-04 DIIS
   @UHF iter   9:  -154.56529617849350   -8.96284e-05   4.97384e-05 DIIS
   @UHF iter  10:  -154.56531482367564   -1.86452e-05   1.74424e-05 DIIS
   @UHF iter  11:  -154.56531690378415   -2.08011e-06   6.34568e-06 DIIS
   @UHF iter  12:  -154.56531729784155   -3.94057e-07   3.35606e-06 DIIS
   @UHF iter  13:  -154.56531746925214   -1.71411e-07   1.91658e-06 DIIS
   @UHF iter  14:  -154.56531754250477   -7.32526e-08   1.27931e-06 DIIS
   @UHF iter  15:  -154.56531758457237   -4.20676e-08   1.05664e-06 DIIS
   @UHF iter  16:  -154.56531764307812   -5.85057e-08   7.23842e-07 DIIS
   @UHF iter  17:  -154.56531767712926   -3.40511e-08   4.14758e-07 DIIS
   @UHF iter  18:  -154.56531768414158   -7.01232e-09   2.09508e-07 DIIS
   @UHF iter  19:  -154.56531768513571   -9.94135e-10   7.51076e-08 DIIS
   @UHF iter  20:  -154.56531768521091   -7.52038e-11   1.86683e-08 DIIS
   @UHF iter  21:  -154.56531768521336   -2.44427e-12   7.81701e-09 DIIS

  ==> Post-Iterations <==

   @Spin Contamination Metric:   1.839328811E-02
   @S^2 Expected:                7.500000000E-01
   @S^2 Observed:                7.683932881E-01
   @S   Expected:                5.000000000E-01
   @S   Observed:                5.000000000E-01

    Orbital Energies [Eh]
    ---------------------

    Alpha Occupied:                                                       

       1A    -20.624188     2A    -11.214605     3A    -11.211960  
       4A     -1.392320     5A     -1.031655     6A     -0.863547  
       7A     -0.709712     8A     -0.671234     9A     -0.602242  
      10A     -0.574540    11A     -0.546928    12A     -0.510007  
      13A     -0.492369    14A     -0.445206  

    Alpha Virtual:                                                        

      15A      0.216167    16A      0.261685    17A      0.305343  
      18A      0.314223    19A      0.329589    20A      0.337119  
      21A      0.404482    22A      0.508114    23A      0.708668  
      24A      0.730048    25A      0.735029    26A      0.835326  
      27A      0.857031    28A      0.937983    29A      1.059143  
      30A      1.075069    31A      1.154489    32A      1.160125  
      33A      1.180027    34A      1.195640    35A      1.204250  
      36A      1.221160    37A      1.254720    38A      1.324260  
      39A      1.445505    40A      1.654533    41A      1.764412  
      42A      1.793935    43A      1.849741    44A      2.010939  
      45A      2.025273    46A      2.044910    47A      2.167202  
      48A      2.275193    49A      2.299203    50A      2.359805  
      51A      2.620582    52A      2.654327    53A      2.678712  
      54A      2.793689    55A      2.882097    56A      3.017124  
      57A      4.028747    58A      4.615218    59A      4.830182  

    Beta Occupied:                                                        

       1A    -20.587098     2A    -11.212525     3A    -11.204627  
       4A     -1.260309     5A     -1.014236     6A     -0.839932  
       7A     -0.639347     8A     -0.599887     9A     -0.591725  
      10A     -0.516779    11A     -0.500257    12A     -0.492496  
      13A     -0.489478  

    Beta Virtual:                                                         

      14A      0.110485    15A      0.224984    16A      0.268084  
      17A      0.308876    18A      0.316841    19A      0.332137  
      20A      0.340247    21A      0.410374    22A      0.543978  
      23A      0.712288    24A      0.733699    25A      0.740611  
      26A      0.837873    27A      0.888950    28A      0.944754  
      29A      1.075253    30A      1.152731    31A      1.163940  
      32A      1.178263    33A      1.186240    34A      1.206454  
      35A      1.211688    36A      1.229349    37A      1.256723  
      38A      1.372490    39A      1.455686    40A      1.686094  
      41A      1.779978    42A      1.805356    43A      1.883719  
      44A      2.034922    45A      2.085040    46A      2.122539  
      47A      2.211505    48A      2.282885    49A      2.309497  
      50A      2.385779    51A      2.626098    52A      2.656893  
      53A      2.683401    54A      2.813257    55A      2.898604  
      56A      3.042516    57A      4.064024    58A      4.618654  
      59A      4.837813  

    Final Occupation by Irrep:
              A 
    DOCC [    13 ]
    SOCC [     1 ]

  Energy converged.

  @UHF Final Energy:  -154.56531768521336

   => Energetics <=

    Nuclear Repulsion Energy =             77.9819597890577683
    One-Electron Energy =                -364.2553466149275891
    Two-Electron Energy =                 131.7080691406564483
    Total Energy =                       -154.5653176852133583


  UHF NO Occupations:
  HONO-2 :   12  A 1.9985917
  HONO-1 :   13  A 1.9934008
  HONO-0 :   14  A 1.0000000
  LUNO+0 :   15  A 0.0065992
  LUNO+1 :   16  A 0.0014083
  LUNO+2 :   17  A 0.0005644
  LUNO+3 :   18  A 0.0002571



Properties will be evaluated at   0.000000,   0.000000,   0.000000 [a0]

Properties computed using the SCF density matrix

  Nuclear Dipole Moment: [e a0]
     X:    -1.0835      Y:    -3.0687      Z:     2.3953

  Electronic Dipole Moment: [e a0]
     X:     0.4131      Y:     2.9477      Z:    -2.3816

  Dipole Moment: [e a0]
     X:    -0.6704      Y:    -0.1210      Z:     0.0137     Total:     0.6814

  Dipole Moment: [D]
     X:    -1.7040      Y:    -0.3074      Z:     0.0348     Total:     1.7319


*** tstop() called on b435 at Tue Jan  5 13:03:11 2021
Module time:
	user time   =       0.59 seconds =       0.01 minutes
	system time =       0.01 seconds =       0.00 minutes
	total time  =          1 seconds =       0.02 minutes
Total time:
	user time   =       8.42 seconds =       0.14 minutes
	system time =       0.08 seconds =       0.00 minutes
	total time  =          9 seconds =       0.15 minutes

*** tstart() called on b435
*** at Tue Jan  5 13:03:11 2021


         ------------------------------------------------------------
                                   SCF GRAD                          
                          Rob Parrish, Justin Turney,                
                       Andy Simmonett, and Alex Sokolov              
         ------------------------------------------------------------

  ==> Geometry <==

    Molecular point group: c1
    Full point group: C1

    Geometry (in Angstrom), charge = 0, multiplicity = 2:

       Center              X                  Y                   Z               Mass       
    ------------   -----------------  -----------------  -----------------  -----------------
         C           -0.061572463064    -0.785717140207    -0.136780847960    12.000000000000
         C           -0.061572463064    -0.784832194136     1.390292152040    12.000000000000
         H           -0.061572463064     0.227082853185    -0.529642602278     1.007825032070
         H            0.814771674388    -1.290789717797    -0.529642602278     1.007825032070
         H           -0.937916600515    -1.290789717797    -0.529642602278     1.007825032070
         H            0.814771674388    -0.278874670475     1.783153906358     1.007825032070
         H           -0.061572463064    -1.796747241457     1.783153906358     1.007825032070
         H           -0.937916600515    -0.278874670475     1.783153906358     1.007825032070
         O            0.165267809452     1.384985084051    -1.101781093591    15.994914619560
         H           -0.787219750853     1.428536685317    -1.199812764866     1.007825032070

  Nuclear repulsion =   77.981959789057768

  ==> Basis Set <==

  Basis Set: 6-31G*
    Blend: 6-31G*
    Number of shells: 32
    Number of basis function: 59
    Number of Cartesian functions: 59
    Spherical Harmonics?: false
    Max angular momentum: 2

  ==> DirectJKGrad: Integral-Direct SCF Gradients <==

    Gradient:                    1
    J tasked:                  Yes
    K tasked:                  Yes
    wK tasked:                  No
    Integrals threads:           1
    Schwarz Cutoff:          0E+00


  -Total Gradient:
     Atom            X                  Y                   Z
    ------   -----------------  -----------------  -----------------
       1        0.003910501853     0.037311954859    -0.016735948829
       2       -0.000169850250    -0.001840556059     0.001047288304
       3       -0.004793708338     0.028267013599    -0.016784337535
       4       -0.000023081097    -0.002562692679     0.001206890691
       5        0.001401361955     0.001045777180     0.000512907516
       6        0.000210508039    -0.000106192560     0.000599236749
       7        0.000134396191     0.000385676270     0.000134430203
       8        0.000273649529    -0.000043829512    -0.000431681269
       9        0.000184443189    -0.052120956000     0.025067594934
      10       -0.001128221071    -0.010336195103     0.005383619236


*** tstop() called on b435 at Tue Jan  5 13:03:12 2021
Module time:
	user time   =       1.30 seconds =       0.02 minutes
	system time =       0.00 seconds =       0.00 minutes
	total time  =          1 seconds =       0.02 minutes
Total time:
	user time   =       9.72 seconds =       0.16 minutes
	system time =       0.08 seconds =       0.00 minutes
	total time  =         10 seconds =       0.17 minutes

  //>>>>>>>>>>>>>>>>>>>>>>>>>>>>>>>>>>>//
  //    Loading displacement 4 of 55   //
  //<<<<<<<<<<<<<<<<<<<<<<<<<<<<<<<<<<<//
gradient() will perform analytic gradient computation.

*** tstart() called on b435
*** at Tue Jan  5 13:03:12 2021

   => Loading Basis Set <=

    Name: 6-31G*
    Role: ORBITAL
    Keyword: BASIS
    atoms 1-2     entry C          line   111 file /home/elliott/miniconda2/envs/amech-env-mini/share/psi4/basis/6-31gs.gbs 
    atoms 3-8, 10 entry H          line    44 file /home/elliott/miniconda2/envs/amech-env-mini/share/psi4/basis/6-31gs.gbs 
    atoms 9       entry O          line   145 file /home/elliott/miniconda2/envs/amech-env-mini/share/psi4/basis/6-31gs.gbs 


         ---------------------------------------------------------
                                   SCF
            by Justin Turney, Rob Parrish, Andy Simmonett
                             and Daniel Smith
                              UHF Reference
                        1 Threads,    953 MiB Core
         ---------------------------------------------------------

  ==> Geometry <==

    Molecular point group: c1
    Full point group: C1

    Geometry (in Angstrom), charge = 0, multiplicity = 2:

       Center              X                  Y                   Z               Mass       
    ------------   -----------------  -----------------  -----------------  -----------------
         C           -0.061572463064    -0.784398658176    -0.136780847960    12.000000000000
         C           -0.061572463064    -0.785283604247     1.390292152040    12.000000000000
         H           -0.061572463064     0.226631443075    -0.529642602278     1.007825032070
         H            0.814771674388    -1.291241127907    -0.529642602278     1.007825032070
         H           -0.937916600515    -1.291241127907    -0.529642602278     1.007825032070
         H            0.814771674388    -0.279326080586     1.783153906358     1.007825032070
         H           -0.061572463064    -1.797198651568     1.783153906358     1.007825032070
         H           -0.937916600515    -0.279326080586     1.783153906358     1.007825032070
         O            0.165267809452     1.384533673941    -1.101781093591    15.994914619560
         H           -0.787219750853     1.428085275207    -1.199812764866     1.007825032070

  Running in c1 symmetry.

  Rotational constants: A =      0.95696  B =      0.16911  C =      0.15411 [cm^-1]
  Rotational constants: A =  28688.96090  B =   5069.74859  C =   4620.03641 [MHz]
  Nuclear repulsion =   77.989886265423706

  Charge       = 0
  Multiplicity = 2
  Electrons    = 27
  Nalpha       = 14
  Nbeta        = 13

  ==> Algorithm <==

  SCF Algorithm Type is PK.
  DIIS enabled.
  MOM disabled.
  Fractional occupation disabled.
  Guess Type is GWH.
  Energy threshold   = 1.00e-08
  Density threshold  = 1.00e-08
  Integral threshold = 0.00e+00

  ==> Primary Basis <==

  Basis Set: 6-31G*
    Blend: 6-31G*
    Number of shells: 32
    Number of basis function: 59
    Number of Cartesian functions: 59
    Spherical Harmonics?: false
    Max angular momentum: 2

  ==> Pre-Iterations <==

   -------------------------------------------------------
    Irrep   Nso     Nmo     Nalpha   Nbeta   Ndocc  Nsocc
   -------------------------------------------------------
     A         59      59       0       0       0       0
   -------------------------------------------------------
    Total      59      59      14      13      13       1
   -------------------------------------------------------

  ==> Integral Setup <==

  Using in-core PK algorithm.
   Calculation information:
      Number of atoms:                  10
      Number of AO shells:              32
      Number of primitives:             73
      Number of atomic orbitals:        59
      Number of basis functions:        59

      Integral cutoff                 1.00e-12
      Number of threads:                 1

  Performing in-core PK
[...]
      50A      2.388011    51A      2.619078    52A      2.656752  
      53A      2.688432    54A      2.800371    55A      2.872488  
      56A      2.997529    57A      4.087375    58A      4.609445  
      59A      4.824557  

    Final Occupation by Irrep:
              A 
    DOCC [    13 ]
    SOCC [     1 ]

  Energy converged.

  @UHF Final Energy:  -154.56832139336547

   => Energetics <=

    Nuclear Repulsion Energy =             77.3995483188949578
    One-Electron Energy =                -363.0956453647398803
    Two-Electron Energy =                 131.1277756524794711
    Total Energy =                       -154.5683213933654372


  UHF NO Occupations:
  HONO-2 :   12  A 1.9986973
  HONO-1 :   13  A 1.9901816
  HONO-0 :   14  A 1.0000000
  LUNO+0 :   15  A 0.0098184
  LUNO+1 :   16  A 0.0013027
  LUNO+2 :   17  A 0.0005147
  LUNO+3 :   18  A 0.0002413



Properties will be evaluated at   0.000000,   0.000000,   0.000000 [a0]

Properties computed using the SCF density matrix

  Nuclear Dipole Moment: [e a0]
     X:     0.8176      Y:    -3.2171      Z:     2.1096

  Electronic Dipole Moment: [e a0]
     X:    -0.6859      Y:     2.6482      Z:    -2.4954

  Dipole Moment: [e a0]
     X:     0.1317      Y:    -0.5689      Z:    -0.3857     Total:     0.6999

  Dipole Moment: [D]
     X:     0.3347      Y:    -1.4461      Z:    -0.9804     Total:     1.7789


*** tstop() called on b435 at Tue Jan  5 13:05:56 2021
Module time:
	user time   =       0.54 seconds =       0.01 minutes
	system time =       0.01 seconds =       0.00 minutes
	total time  =          0 seconds =       0.00 minutes
Total time:
	user time   =     172.59 seconds =       2.88 minutes
	system time =       1.21 seconds =       0.02 minutes
	total time  =        174 seconds =       2.90 minutes

*** tstart() called on b435
*** at Tue Jan  5 13:05:56 2021


         ------------------------------------------------------------
                                   SCF GRAD                          
                          Rob Parrish, Justin Turney,                
                       Andy Simmonett, and Alex Sokolov              
         ------------------------------------------------------------

  ==> Geometry <==

    Molecular point group: c1
    Full point group: C1

    Geometry (in Angstrom), charge = 0, multiplicity = 2:

       Center              X                  Y                   Z               Mass       
    ------------   -----------------  -----------------  -----------------  -----------------
         C            0.041209215583    -0.828656728089    -0.028449498089    12.000000000000
         C            0.322430471862    -0.607300702367     1.451012306067    12.000000000000
         H           -0.232842272334     0.184591759252    -0.516758236703     1.007825032070
         H            0.908764583444    -1.214709377923    -0.554515693876     1.007825032070
         H           -0.796532987289    -1.498286062115    -0.193049662804     1.007825032070
         H            1.139920786726     0.091948582615     1.590472551932     1.007825032070
         H            0.591997221642    -1.538010325183     1.942332541537     1.007825032070
         H           -0.548921684470    -0.204937388488     1.956568271996     1.007825032070
         O           -0.327871876704     1.293957456666    -1.209444069097    15.994914619560
         H           -0.188616494670     0.741058094283    -1.968506369967     1.007825032070

  Nuclear repulsion =   77.399548318894958

  ==> Basis Set <==

  Basis Set: 6-31G*
    Blend: 6-31G*
    Number of shells: 32
    Number of basis function: 59
    Number of Cartesian functions: 59
    Spherical Harmonics?: false
    Max angular momentum: 2

  ==> DirectJKGrad: Integral-Direct SCF Gradients <==

    Gradient:                    1
    J tasked:                  Yes
    K tasked:                  Yes
    wK tasked:                  No
    Integrals threads:           1
    Schwarz Cutoff:          0E+00


  -Total Gradient:
     Atom            X                  Y                   Z
    ------   -----------------  -----------------  -----------------
       1        0.001494644670    -0.000301077640    -0.001464092229
       2       -0.000063213401    -0.000010915402     0.000013421002
       3       -0.005208587411     0.041482625669    -0.034653026640
       4        0.000000553962    -0.000000142525    -0.000000271329
       5       -0.000001068266    -0.000001025378     0.000000269758
       6        0.000000530448     0.000000508856    -0.000000126636
       7       -0.000000205739    -0.000000063521    -0.000000107927
       8       -0.000000507308     0.000000267003     0.000000302619
       9        0.004242573442    -0.035142105119     0.020551807036
      10       -0.000464720397    -0.006028071944     0.015551824347


*** tstop() called on b435 at Tue Jan  5 13:05:58 2021
Module time:
	user time   =       1.29 seconds =       0.02 minutes
	system time =       0.00 seconds =       0.00 minutes
	total time  =          2 seconds =       0.03 minutes
Total time:
	user time   =     173.89 seconds =       2.90 minutes
	system time =       1.21 seconds =       0.02 minutes
	total time  =        176 seconds =       2.93 minutes

			-----------------------------------------
			 OPTKING 2.0: for geometry optimizations 
			  - R.A. King,  Bethel University        
			-----------------------------------------

	Previous internal coordinate definitions found.
	---Fragment 1 Geometry and Gradient---
	 C           0.0778741316       -1.5659342743       -0.0537617600
	 C           0.6093052887       -1.1476320078        2.7420158739
	 H          -0.4400081269        0.3488278714       -0.9765315443
	 H           1.7173161820       -2.2954680553       -1.0478827978
	 H          -1.5052292018       -2.8313503261       -0.3648109927
	 H           2.1541381001        0.1737576394        3.0055575450
	 H           1.1187126203       -2.9064183041        3.6704765625
	 H          -1.0373116521       -0.3872755386        3.6973781944
	 O          -0.6195880536        2.4452252207       -2.2855180636
	 H          -0.3564335191        1.4003968468       -3.7199379301
	             0.0014946447       -0.0003010776       -0.0014640922
	            -0.0000632134       -0.0000109154        0.0000134210
	            -0.0052085874        0.0414826257       -0.0346530266
	             0.0000005540       -0.0000001425       -0.0000002713
	            -0.0000010683       -0.0000010254        0.0000002698
	             0.0000005304        0.0000005089       -0.0000001266
	            -0.0000002057       -0.0000000635       -0.0000001079
	            -0.0000005073        0.0000002670        0.0000003026
	             0.0042425734       -0.0351421051        0.0205518070
	            -0.0004647204       -0.0060280719        0.0155518243

	---Fragment 1 Intrafragment Coordinates---
	 - Coordinate -           - BOHR/RAD -       - ANG/DEG -
	 R(1,2)           =         2.876416	       1.522134
	 R(1,3)           =         2.187697	       1.157680
	 R(1,4)           =         2.051406	       1.085557
	 R(1,5)           =         2.050426	       1.085039
	 R(2,6)           =         2.049886	       1.084753
	 R(2,7)           =         2.053013	       1.086408
	 R(2,8)           =         2.049928	       1.084775
	*R(3,9)           =         2.478019	       1.311311
	 R(9,10)          =         1.794011	       0.949350
	 B(1,2,6)         =         1.936855	     110.973591
	 B(1,2,7)         =         1.939947	     111.150797
	 B(1,2,8)         =         1.937475	     111.009143
	*B(1,3,9)         =         2.943368	     168.642568
	 B(2,1,3)         =         1.903319	     109.052170
	 B(2,1,4)         =         1.955284	     112.029499
	 B(2,1,5)         =         1.960422	     112.323895
	 B(3,1,4)         =         1.871339	     107.219804
	 B(3,1,5)         =         1.868572	     107.061287
	 B(3,9,10)        =         1.489729	      85.355202
	 B(4,1,5)         =         1.900800	     108.907810
	 B(6,2,7)         =         1.882939	     107.884430
	 B(6,2,8)         =         1.882133	     107.838306
	 B(7,2,8)         =         1.882104	     107.836592
	 D(1,3,9,10)      =         0.861653	      49.369109
	*D(2,1,3,9)       =         2.037501	     116.740205
	 D(3,1,2,6)       =        -1.037872	     -59.465683
	 D(3,1,2,7)       =        -3.133367	    -179.528685
	 D(3,1,2,8)       =         1.054963	      60.444942
	 D(4,1,2,6)       =         1.030842	      59.062914
	 D(4,1,2,7)       =        -1.064652	     -61.000088
	 D(4,1,2,8)       =         3.123678	     178.973539
	 D(4,1,3,9)       =        -0.083048	      -4.758295
	 D(5,1,2,6)       =        -3.106306	    -177.978243
	 D(5,1,2,7)       =         1.081384	      61.958755
	 D(5,1,2,8)       =        -1.013471	     -58.067618
	 D(5,1,3,9)       =        -2.120596	    -121.501224
	*R(3,10)          =         2.939228	       1.555372

	Current energy   :      -154.5683213934

	Energy change for the previous step:
		Projected    :        -0.0000001417
		Actual       :        -0.0000000380

	Performing BFGS update.
	Previous computed or guess Hessian on step 1.
	Denominators (dg)(dq) or (dq)(dq) are very small.
	 Skipping Hessian update for step 30.
	Steps to be used in Hessian update: 29 28
	Taking RFO optimization step.
	Going to follow RFO solution 1.
	Using RFO vector 1.
	Norm of target step-size    0.00064
	Projected energy change by RFO approximation:        -0.0000000138

	Back-transformation to cartesian coordinates...
	Could not converge backtransformation.
	Using first guess instead.

	Back-transformation to cartesian coordinates to adjust frozen coordinates...
	Successfully converged to displaced geometry.

	--- Internal Coordinate Step in ANG or DEG, aJ/ANG or AJ/DEG ---
	 ---------------------------------------------------------------------------
	   Coordinate                Previous        Force       Change         New 
	   ----------                --------       ------       ------       ------
	    1 R(1,2)          =      1.522134     0.000001    -0.000001     1.522133
	    2 R(1,3)          =      1.157680    -0.000002     0.000000     1.157680
	    3 R(1,4)          =      1.085557    -0.000005    -0.000002     1.085555
	    4 R(1,5)          =      1.085039    -0.000012    -0.000001     1.085037
	    5 R(2,6)          =      1.084753    -0.000006    -0.000002     1.084751
	    6 R(2,7)          =      1.086408     0.000000     0.000001     1.086409
	    7 R(2,8)          =      1.084775    -0.000005    -0.000001     1.084774
	    8 *R(3,9)         =      1.311311     0.000000    -0.000000     1.311311
	    9 R(9,10)         =      0.949350    -0.000549    -0.000070     0.949280
	   10 B(1,2,6)        =    110.973591     0.000000    -0.000125   110.973466
	   11 B(1,2,7)        =    111.150797     0.000000    -0.000045   111.150753
	   12 B(1,2,8)        =    111.009143    -0.000000     0.000014   111.009157
	   13 *B(1,3,9)       =    168.642568     0.000000     0.000000   168.642568
	   14 B(2,1,3)        =    109.052170     0.000000    -0.000540   109.051630
	   15 B(2,1,4)        =    112.029499    -0.000000    -0.000021   112.029479
	   16 B(2,1,5)        =    112.323895     0.000000     0.000063   112.323958
	   17 B(3,1,4)        =    107.219804    -0.000000    -0.000481   107.219323
	   18 B(3,1,5)        =    107.061287    -0.000000     0.000551   107.061838
	   19 B(3,9,10)       =     85.355202     0.000002     0.002719    85.357921
	   20 B(4,1,5)        =    108.907810    -0.000000     0.000423   108.908233
	   21 B(6,2,7)        =    107.884430    -0.000000     0.000016   107.884446
	   22 B(6,2,8)        =    107.838306    -0.000000     0.000129   107.838435
	   23 B(7,2,8)        =    107.836592    -0.000000     0.000019   107.836611
	   24 D(1,3,9,10)     =     49.369109    -0.000000     0.035637    49.404745
	   25 *D(2,1,3,9)     =    116.740205     0.000000     0.000000   116.740205
	   26 D(3,1,2,6)      =    -59.465683     0.000000    -0.000291   -59.465974
	   27 D(3,1,2,7)      =   -179.528685     0.000000    -0.000198  -179.528883
	   28 D(3,1,2,8)      =     60.444942     0.000000    -0.000202    60.444740
	   29 D(4,1,2,6)      =     59.062914     0.000000    -0.001251    59.061663
	   30 D(4,1,2,7)      =    -61.000088     0.000000    -0.001158   -61.001246
	   31 D(4,1,2,8)      =    178.973539     0.000000    -0.001162   178.972377
	   32 D(4,1,3,9)      =     -4.758295    -0.000000     0.000621    -4.757673
	   33 D(5,1,2,6)      =   -177.978243    -0.000000    -0.000662  -177.978905
	   34 D(5,1,2,7)      =     61.958755     0.000000    -0.000569    61.958186
	   35 D(5,1,2,8)      =    -58.067618     0.000000    -0.000573   -58.068191
	   36 D(5,1,3,9)      =   -121.501224     0.000000     0.000094  -121.501129
	   37 *R(3,10)        =      1.555372     0.000000     0.000000     1.555372
	 ---------------------------------------------------------------------------
	Successfully symmetrized geometry.

  ==> Convergence Check <==

  Measures of convergence in internal coordinates in au.
  Criteria marked as inactive (o), active & met (*), and active & unmet ( ).
  ---------------------------------------------------------------------------------------------
   Step     Total Energy     Delta E     MAX Force     RMS Force      MAX Disp      RMS Disp   
  ---------------------------------------------------------------------------------------------
    Convergence Criteria    1.00e-06 *    3.00e-04 *             o    1.20e-03 *             o
  ---------------------------------------------------------------------------------------------
     31    -154.56832139   -3.80e-08 *    6.67e-05 *    1.17e-05 o    6.22e-04 *    1.05e-04 o  ~
  ---------------------------------------------------------------------------------------------


  **** Optimization is complete! (in 31 steps) ****

  ==> Optimization Summary <==

  Measures of convergence in internal coordinates in au.
  --------------------------------------------------------------------------------------------------------------- ~
   Step         Total Energy             Delta E       MAX Force       RMS Force        MAX Disp        RMS Disp  ~
  --------------------------------------------------------------------------------------------------------------- ~
      1    -154.565254440180   -154.565254440180      0.03732475      0.00630631      0.04504527      0.00820833  ~
      2    -154.566711139705     -0.001456699525      0.02257194      0.00381795      0.22517298      0.06787403  ~
      3    -154.547640500575      0.019070639129      0.04621974      0.01784743      0.04320049      0.01643920  ~
      4    -154.557116349366     -0.009475848790      0.03511394      0.01327424      0.04406672      0.01644044  ~
      5    -154.563695412080     -0.006579062714      0.02255332      0.00832843      0.02244695      0.00822319  ~
      6    -154.565828703876     -0.002133291796      0.01560580      0.00574534      0.01062984      0.00411298  ~
      7    -154.566582786848     -0.000754082972      0.01217004      0.00450044      0.02417212      0.01265173  ~
      8    -154.565693486775      0.000889300073      0.01636286      0.00646894      0.04141895      0.01644505  ~
      9    -154.567806548313     -0.002113061538      0.00139643      0.00056597      0.09645601      0.01644310  ~
     10    -154.567852861625     -0.000046313312      0.00376152      0.00066056      0.09955003      0.01641035  ~
     11    -154.567890921692     -0.000038060066      0.00374090      0.00065711      0.09908788      0.01640420  ~
     12    -154.567933723094     -0.000042801402      0.00291198      0.00053603      0.04433226      0.01637381  ~
     13    -154.567538029646      0.000395693447      0.00751623      0.00233769      0.05322248      0.01648335  ~
     14    -154.567969383664     -0.000431354018      0.00188832      0.00038540      0.09933816      0.01642615  ~
     15    -154.568001915586     -0.000032531922      0.00355854      0.00063048      0.09953949      0.01642722  ~
     16    -154.568023214537     -0.000021298951      0.00549409      0.00096690      0.09875441      0.01640227  ~
     17    -154.568070727043     -0.000047512506      0.00462233      0.00082154      0.09964136      0.01641296  ~
     18    -154.568104189694     -0.000033462651      0.00520352      0.00091401      0.09974602      0.01642202  ~
     19    -154.568121102420     -0.000016912726      0.00677852      0.00118678      0.09965611      0.01639590  ~
     20    -154.568167914316     -0.000046811895      0.00582545      0.00102559      0.09740511      0.01633882  ~
     21    -154.568232492930     -0.000064578615      0.00176865      0.00032422      0.09905177      0.01646047  ~
     22    -154.568245019334     -0.000012526404      0.00414697      0.00072567      0.09920129      0.01639151  ~
     23    -154.568275856356     -0.000030837022      0.00298390      0.00052251      0.09905950      0.01640703  ~
     24    -154.568289499486     -0.000013643130      0.00338025      0.00059406      0.09969720      0.01641888  ~
     25    -154.568284807493      0.000004691993      0.00521045      0.00091046      0.07243690      0.01193217  ~
     26    -154.568301454419     -0.000016646926      0.00403195      0.00070499      0.07640083      0.01629898  ~
     27    -154.566724414370      0.001577040050      0.04248032      0.00745131      0.06982180      0.01245156  ~
     28    -154.568320750981     -0.001596336611      0.00056507      0.00009894      0.05137103      0.00846687  ~
     29    -154.568320217453      0.000000533528      0.00104313      0.00018235      0.01424164      0.00235889  ~
     30    -154.568321355386     -0.000001137933      0.00020302      0.00003548      0.00180615      0.00030042  ~
     31    -154.568321393365     -0.000000037980      0.00006666      0.00001165      0.00062197      0.00010510  ~
  --------------------------------------------------------------------------------------------------------------- ~

	Writing optimization data to binary file.
	Final energy is   -154.5683213933655
	Final (previous) structure:
	Cartesian Geometry (in Angstrom)
	    C     0.0412092156  -0.8286567281  -0.0284494981
	    C     0.3224304719  -0.6073007024   1.4510123061
	    H    -0.2328422723   0.1845917593  -0.5167582367
	    H     0.9087645834  -1.2147093779  -0.5545156939
	    H    -0.7965329873  -1.4982860621  -0.1930496628
	    H     1.1399207867   0.0919485826   1.5904725519
	    H     0.5919972216  -1.5380103252   1.9423325415
	    H    -0.5489216845  -0.2049373885   1.9565682720
	    O    -0.3278718767   1.2939574567  -1.2094440691
	    H    -0.1886164947   0.7410580943  -1.9685063700
	Saving final (previous) structure.
			--------------------------
			 OPTKING Finished Execution 
			--------------------------

    Final optimized geometry and variables:
    Molecular point group: c1
    Full point group: C1

    Geometry (in Angstrom), charge = 0, multiplicity = 2:

    C            0.041209215583    -0.828656728089    -0.028449498089
    C            0.322430471862    -0.607300702367     1.451012306067
    H           -0.232842272334     0.184591759252    -0.516758236703
    H            0.908764583444    -1.214709377923    -0.554515693876
    H           -0.796532987289    -1.498286062115    -0.193049662804
    H            1.139920786726     0.091948582615     1.590472551932
    H            0.591997221642    -1.538010325183     1.942332541537
    H           -0.548921684470    -0.204937388488     1.956568271996
    O           -0.327871876704     1.293957456666    -1.209444069097
    H           -0.188616494670     0.741058094283    -1.968506369967

	Cleaning optimization helper files.

    Psi4 stopped on: Tuesday, 05 January 2021 01:05PM
    Psi4 wall time for execution: 0:02:55.69

*** Psi4 exiting successfully. Buy a developer a beer!
