[Molden Format]
[Molpro variables]
_NUMVAR=  700.0000000000000    
_EV2006= 0.3674930886769165E-01
_EV= 0.3674932534394180E-01
_KJOULE= 0.3808798324128737E-03
_KJOULE/MOL= 0.3808798324128737E-03
_CM= 0.4556335267302901E-05
_CM-1= 0.4556335267302901E-05
_KCAL= 0.1593601117815568E-02
_KCAL/MOL= 0.1593601117815568E-02
_KELVIN2006= 0.3166828861084835E-05
_KELVIN= 0.3166814820820034E-05
_HERTZ2006= 0.1519829850815779E-15
_HERTZ= 0.1519829846011223E-15
_HZ2006= 0.1519829850815779E-15
_HZ= 0.1519829846011223E-15
_TOA2006= 0.5291772490000000    
_TOA= 0.5291772090000000    
_TOANG2006= 0.5291772490000000    
_TOANG= 0.5291772090000000    
_TORAD= 0.1745329251994330E-01
_TOCM=  219474.6306700000    
_TODEBYE=  2.541580000000000    
_TOEV2006=  27.21139610000000    
_TOEV=  27.21138390000000    
_TOHERTZ2006=  6579683899900000.    
_TOHERTZ=  6579683920700000.    
_TOHZ2006=  6579683899900000.    
_TOHZ=  6579683920700000.    
_TOK2006=  315773.3000000000    
_TOK=  315774.7000000000    
_TOKCAL=  627.5096000000000    
_TOKELVIN2006=  315773.3000000000    
_TOKELVIN=  315774.7000000000    
_TOKJ=  2625.500000000000    
_TOKJOULE=  2625.500000000000    
_ANG2006=  1.889725988578923    
_ANG=  1.889726131421507    
_ANGSTROM2006=  1.889725988578923    
_ANGSTROM=  1.889726131421507    
_IGNORE_UNDEF=  2.000000000000000    
_STRICTCHECK=  0.000000000000000    
_SEW_ONEEL=  0.000000000000000    
_CPPDONE=FALSE
_DKROLL_DONE=  0.000000000000000    
_FOCKDONE=  0.000000000000000    
_GRADONE=FALSE
_HESSDONE=TRUE
_INTDONE=TRUE
_SCFDONE=FALSE
_MODUL_CUDA=FALSE
_MODUL_SLATER=FALSE
_MODUL_MRCC=FALSE
_MRCC_EXEC=
_FITC_AO_SAVED=FALSE
_FITC_MO_SAVED=FALSE
_SHARED_FS=TRUE
_LSTYP=SEWARD
_INTYP=INTS
_GEOMTYP=ZMAT
_GRADTYP=ALASKA
_DIRECT=FALSE
_SYNCM=  0.000000000000000    
_BASIS=CC-PVDZ
_ZORIENT=  1.000000000000000    
_NELEC=  10.00000000000000    
_SPIN=  0.000000000000000    
!SPIN=  0.000000000000000    
_OPTCONV= 0.4123834349837300E-03
_QSDSTEP=  0.000000000000000    
_QSDIRC=  0.000000000000000    
_PROGRAM=FREQ
_CPUSTEP=  0.000000000000000    
_SYSSTEP=  0.000000000000000    
_WALLSTEP= 0.6000000000000000E-01
!DFMP2=  0.000000000000000    
!DFSCF=  0.000000000000000    
!SCSGRD=  0.000000000000000    
_BASINP=  610.0000000000000    
_CPUTOT=  61.28000000000000    
_DFTEXFAC=  1.000000000000000    
_DMX= 0.7895305631500094E-08
_DMY=-0.8309506749728819E-07
_DMZ= 0.2796664706942504    
_FREQUENCIES= -1072.750092497814    
_EMP2= -40.26875263122385    
_ENERGR= -40.12914812345673    
_ENERGU= -40.29698274638352    
_ENERGY= -40.26875263122385    
_ENUC=  12.01841693881291    
_FREQSTEP=  31.00000000000000    
!RS2GRSTATE=  1.000000000000000    
!RS2GRSYM=  1.000000000000000    
_GRADENERG= -40.26804667234505    
_GRADEXFAC=  9999.000000000000    
_GRADMETHOD=TRUE
_GRADRECORD=  5200.100000000000    
_VIRIAL= 0.2402312819515963    
!GRID_FREEZE= -1.000000000000000    
_ITERATIONS=  0.000000000000000    
_LASTNELEC=  2.000000000000000    
_LASTSPIN=  0.000000000000000    
_LASTSYM=  1.000000000000000    
_MPP_PROG=  1.000000000000000    
_MSENERGY= -40.26875263122385    
_NPROC_MPP=  4.000000000000000    
_NPROC_SMP=  1.000000000000000    
_NUMSTEP=  0.000000000000000    
_OPTCONVMX= 0.3428461815530465E-03
_OPTCONVRMS= 0.5154792937296625E-04
_OPTGRAD= 0.3523341756605839E-04
_OPTGRADMX= 0.1704785439154357E-04
_OPTGRADRMS= 0.4404177195757299E-05
_OPTSTEP=  7.000000000000000    
_ORBITAL=  2141.200000000000    
_PI=  3.141592653589793    
!MCACT=  2.000000000000000    
!MCCLOSED=  4.000000000000000    
!MCFREEZE=  0.000000000000000    
!MCMS2=  0.000000000000000    
!MCNEL=  2.000000000000000    
!MCNSTSYM=  1.000000000000000    
!MCSTATE=  1.000000000000000    
!MCSYM=  1.000000000000000    
!MCWEIGHT=  1.000000000000000    
_SEIG_MIN= 0.1374123896448828E-01
_SEWPROP=TRUE
_STATUS=  1.000000000000000    
_SYSTOT=  2.860000000000000    
_VERSION=  2010001.000000000    
_WALLTOT=  210.4900000000000    
_ZPE= 0.3600995723609266E-01
_DATE=30-Aug-19
_LASTORB=MCSCF
_MACHINE=Linux-2.6.34-12-desktop/tt108(x86_64) 64 bit mpp version
_OUTPUT=/home/carlo/qm/combustion/test_diss/newalg/ch4_ch3_h_vrc_test1/dist_1.8/molpro.xml
_PGROUP=C1
_TIME=03:56:01
_LIBMOL=/programs/molpro2010p/bin/../lib/
!SURFREC=  0.000000000000000    
!POLYREC=  0.000000000000000    
!DIPREC=  0.000000000000000    
!VSCFREC=  0.000000000000000    
!VCIREC=  0.000000000000000    
!PVCIREC=  0.000000000000000    
!VMP2REC=  0.000000000000000    
!VMCSCFREC=  0.000000000000000    
!GAREC=  0.000000000000000    
!SCFORB=  21002.00000000000    
!MCORB=  21412.00000000000    
!CIOCC=  6.000000000000000    
!CICORE=  1.000000000000000    
!CICLOS=  4.000000000000000    
!CIISTSYM=  1.000000000000000    
!CIISTMS2=  0.000000000000000    
!CIISTNEL=  8.000000000000000    
!NEWMOL=  0.000000000000000    
!NEWSYM=  0.000000000000000    
_SLFILES=slscratch
_NGSSTO=  9.000000000000000    
_SIN=SIN
_COS=COS
_TAN=TAN
_ACOS=ACOS
_ASIN=ASIN
_ATAN=ATAN
_COSH=COSH
_SINH=SINH
_TANH=TANH
_ABS=ABS
_MOD=MOD
_ERF=ERF
_REFC=REFC
_ERFC=ERFC
_HYPOT=HYPOT
_J0=J0
_J1=J1
_JN=JN
_GAMMA=GAMMA
_LGAMMA=LGAMMA
_Y0=Y0
_Y1=Y1
_YN=YN
_EXP=EXP
_LOG=LOG
_LOG10=LOG10
_SQRT=SQRT
_INT=INT
_NINT=NINT
_MAX=MAX
_MIN=MIN
_COSMO=  0.000000000000000    
_COSMOIT=  0.000000000000000    
_COSMOES=  0.000000000000000    
_COSMOEDS=  0.000000000000000    
_COSMOEC=  0.000000000000000    
_COSMOEDCORR=  0.000000000000000    
_FEPSI=  1.000000000000000    
_SL_IsMM=  0.000000000000000    
_SL_NSYM=  0.000000000000000    
_SL_System_BitSw=  0.000000000000000    
_SL_Unique_atoms=  0.000000000000000    
_SL_GRAD=  0.000000000000000    
_SL_MAXUPD_Hess=  5.000000000000000    
_SL_N_PRINT_COD=  5.000000000000000    
_SL_PRINT_CODES=  0.000000000000000    
_SL_BasType=  0.000000000000000    
_SL_Energy_Pred=  0.000000000000000    
_SL_New_Coords=  0.000000000000000    
_SL_Total_Nuclea=  0.000000000000000    
_SL_Highest_Mltp=  0.000000000000000    
_SL_Ref_Geom=  0.000000000000000    
!LATTICE= -1.000000000000000    
!NEWLATTICE=  0.000000000000000    
!LATGRAD_VAR=FALSE
!SEW_LATTICE=  1.000000000000000    
!LOCAL=  0.000000000000000    
!SAVEDOM= -1.000000000000000    
!RESTDOM= -1.000000000000000    
!SAVEDOM_HF= -1.000000000000000    
!RESTDOM_HF= -1.000000000000000    
!HESSREC=  5300.200000000000    
!FREQREC=  5400.200000000000    
!NMODREC=  5450.200000000000    
!GTASKS=  0.000000000000000    
!HTASKS=  5500.200000000000    
!THRCHG= 0.1000000000000000    
!DEBUG= -1.000000000000000    
!CFIT_CPHF=  0.000000000000000    
!RDOMAUX_CPHF=  3.000000000000000    
!THRAO_CPHF= 0.1000000000000000E-09
!THRMO_CPHF= 0.1000000000000000E-09
!THROV_CPHF= 0.1000000000000000E-11
!THRSW_CPHF= 0.1000000000000000E-09
!THRPROD_CPHF= 0.1000000000000000E-09
!THRAOPR_CPHF= 0.1000000000000000E-11
!CFIT_SCFGRD=  0.000000000000000    
!RDOMAUX_SCFGRD=  5.000000000000000    
!THRAO_SCFGRD= 0.1000000000000000E-09
!THRMO_SCFGRD= 0.1000000000000000E-09
!THROV_SCFGRD= 0.1000000000000000E-11
!THRSW_SCFGRD= 0.1000000000000000E-09
!THRPROD_SCFGRD= 0.1000000000000000E-09
!THRAOPR_SCFGRD= 0.1000000000000000E-11
!LOCFIT_SCF=  0.000000000000000    
!LOCFIT_MP2= -1.000000000000000    
_RIDOM=  0.000000000000000    
!CC2_METHOD=  0.000000000000000    
_BASIS2006=FALSE
_SVDDEL= -1.000000000000000    
_SVDDELA= -1.000000000000000    
_SVDDELP= -1.000000000000000    
_SVDDELF= -1.000000000000000    
_SVDDELS= -1.000000000000000    
_SVDDEL_ABS= -1.000000000000000    
_SVDDELA_ABS= -1.000000000000000    
_SVDDELP_ABS= -1.000000000000000    
_SVDDELF_ABS= -1.000000000000000    
_SVDDELS_ABS= -1.000000000000000    
_MAXBASIS=  0.000000000000000    
!OPT_CONICAL=  0.000000000000000    
!CLEARSP_JGRID=  0.000000000000000    
RCH1=  1.094089621793260    
RCH2=  1.094089713330657    
RCH3=  1.094089863649833    
AHCC1=  115.5225858858409    
AHCC2=  115.5225876061019    
AHCC3=  102.3969392383998    
B1=  139.2055211185866    
B2= -110.3972483675767    
RCH4=  1.800000000000000    
GX1=-0.1269780982790514E-07
GY1= 0.3101469396582512E-07
GZ1= 0.1300494296861701    
GX2= -1.390358394819004    
GY2=  1.464434241805978    
GZ2= 0.5739134521485068    
GX3=  1.963416748635024    
GY3= 0.4718683250483335    
GZ3= 0.5739130458378644    
GX4=-0.5730582025040437    
GY4= -1.936303489915541    
GZ4= 0.5739121772427904    
GX5=-0.5551115123125783E-16
GY5= 0.5534782286931161E-06
GZ5= -3.271457606872503    
C1X1=-0.1269780982790514E-07
C1Y1= 0.3101469396582512E-07
C1Z1= 0.1300494296861701    
H2X2= -1.390358394819004    
H2Y2=  1.464434241805978    
H2Z2= 0.5739134521485068    
H3X3=  1.963416748635024    
H3Y3= 0.4718683250483335    
H3Z3= 0.5739130458378644    
H4X4=-0.5730582025040437    
H4Y4= -1.936303489915541    
H4Z4= 0.5739121772427904    
H5X5=-0.5551115123125783E-16
H5Y5= 0.5534782286931161E-06
H5Z5= -3.271457606872503    
CBSEN= -40.26875263122385    
[Atoms] Angs
C     1    6        -0.0000000067        0.0000000164        0.0688191942
H     2    1        -0.7357459749        0.7749452248        0.3037019188
H     3    1         1.0389953951        0.2497019633        0.3037017038
H     4    1        -0.3032493402       -1.0246476766        0.3037012442
H     5    1        -0.0000000000        0.0000002929       -1.7311808058
[GTO]
  1 0
 s    9  1.00
  0.6665000000D+04  0.6920001793D-03
  0.1000000000D+04  0.5329001381D-02
  0.2280000000D+03  0.2707700701D-01
  0.6471000000D+02  0.1017180264D+00
  0.2106000000D+02  0.2747400712D+00
  0.7495000000D+01  0.4485641162D+00
  0.2797000000D+01  0.2850740738D+00
  0.5215000000D+00  0.1520400394D-01
  0.1596000000D+00 -0.3191000827D-02
 s    9  1.00
  0.6665000000D+04 -0.1460000642D-03
  0.1000000000D+04 -0.1154000508D-02
  0.2280000000D+03 -0.5725002519D-02
  0.6471000000D+02 -0.2331201026D-01
  0.2106000000D+02 -0.6395502813D-01
  0.7495000000D+01 -0.1499810660D+00
  0.2797000000D+01 -0.1272620560D+00
  0.5215000000D+00  0.5445292395D+00
  0.1596000000D+00  0.5804962554D+00
 s    9  1.00
  0.6665000000D+04  0.0000000000D+00
  0.1000000000D+04  0.0000000000D+00
  0.2280000000D+03  0.0000000000D+00
  0.6471000000D+02  0.0000000000D+00
  0.2106000000D+02  0.0000000000D+00
  0.7495000000D+01  0.0000000000D+00
  0.2797000000D+01  0.0000000000D+00
  0.5215000000D+00  0.0000000000D+00
  0.1596000000D+00  0.1000000000D+01
 p    4  1.00
  0.9439000000D+01  0.3810902127D-01
  0.2002000000D+01  0.2094801169D+00
  0.5456000000D+00  0.5085572839D+00
  0.1517000000D+00  0.4688422617D+00
 p    4  1.00
  0.9439000000D+01  0.0000000000D+00
  0.2002000000D+01  0.0000000000D+00
  0.5456000000D+00  0.0000000000D+00
  0.1517000000D+00  0.1000000000D+01
 d    1  1.00
  0.5500000000D+00  0.1000000000D+01
  
  2 0
 s    4  1.00
  0.1301000000D+02  0.1968498999D-01
  0.1962000000D+01  0.1379769298D+00
  0.4446000000D+00  0.4781477569D+00
  0.1220000000D+00  0.5012397451D+00
 s    4  1.00
  0.1301000000D+02  0.0000000000D+00
  0.1962000000D+01  0.0000000000D+00
  0.4446000000D+00  0.0000000000D+00
  0.1220000000D+00  0.1000000000D+01
 p    1  1.00
  0.7270000000D+00  0.1000000000D+01
  
  3 0
 s    4  1.00
  0.1301000000D+02  0.1968498999D-01
  0.1962000000D+01  0.1379769298D+00
  0.4446000000D+00  0.4781477569D+00
  0.1220000000D+00  0.5012397451D+00
 s    4  1.00
  0.1301000000D+02  0.0000000000D+00
  0.1962000000D+01  0.0000000000D+00
  0.4446000000D+00  0.0000000000D+00
  0.1220000000D+00  0.1000000000D+01
 p    1  1.00
  0.7270000000D+00  0.1000000000D+01
  
  4 0
 s    4  1.00
  0.1301000000D+02  0.1968498999D-01
  0.1962000000D+01  0.1379769298D+00
  0.4446000000D+00  0.4781477569D+00
  0.1220000000D+00  0.5012397451D+00
 s    4  1.00
  0.1301000000D+02  0.0000000000D+00
  0.1962000000D+01  0.0000000000D+00
  0.4446000000D+00  0.0000000000D+00
  0.1220000000D+00  0.1000000000D+01
 p    1  1.00
  0.7270000000D+00  0.1000000000D+01
  
  5 0
 s    4  1.00
  0.1301000000D+02  0.1968498999D-01
  0.1962000000D+01  0.1379769298D+00
  0.4446000000D+00  0.4781477569D+00
  0.1220000000D+00  0.5012397451D+00
 s    4  1.00
  0.1301000000D+02  0.0000000000D+00
  0.1962000000D+01  0.0000000000D+00
  0.4446000000D+00  0.0000000000D+00
  0.1220000000D+00  0.1000000000D+01
 p    1  1.00
  0.7270000000D+00  0.1000000000D+01
 
 
[MO]
 Sym=      1.1
 Ene=     -11.2640
 Spin= Alpha
 Occup=    2.000000
1 1.00136372678152
2 0.007396006912872
3 -0.008476465075681
4 0.000000000041746
5 0.000000000060253
6 0.000697724784385
7 -0.000000000173300
8 -0.000000000126686
9 0.000138829804456
10 0.000356973329961
11 0.000356973153107
12 -0.000713946483068
13 -0.000000000287739
14 -0.000000000012638
15 0.000000000476871
16 -0.000175804864461
17 0.001351904970080
18 -0.000279155560769
19 0.000294028468682
20 0.000137690698362
21 -0.000175804364006
22 0.001351904659694
23 0.000394213967834
24 0.000094741531740
25 0.000137690560245
26 -0.000175803886543
27 0.001351903964011
28 -0.000115058413525
29 -0.000388770230084
30 0.000137690384219
31 0.000065437539538
32 0.000271323091776
33 -0.000000000006687
34 -0.000000000017814
35 0.000280575236258
 Sym=      2.1
 Ene=      -0.9081
 Spin= Alpha
 Occup=    2.000000
1 -0.023425326957534
2 0.75220673699222
3 -0.15593965109459
4 0.000000000994319
5 0.000000033285337
6 0.12425348418708
7 -0.000000001092824
8 -0.000000028981278
9 -0.021116020444899
10 0.001901277961030
11 0.001901273888931
12 -0.003802551849961
13 -0.000000003453756
14 -0.000000000256798
15 0.000000004760009
16 0.35367896803642
17 -0.14567064556015
18 0.019083065812262
19 -0.020099776311628
20 -0.002983992424864
21 0.35367889697401
22 -0.14567061045254
23 -0.026948449250000
24 -0.006476524480023
25 -0.002983985369675
26 0.35367876721555
27 -0.14567055168821
28 0.007865382434550
29 0.026576302555405
30 -0.002983971087830
31 0.012050650728559
32 -0.022778226712225
33 0.000000000001007
34 -0.000000000551435
35 0.005766884481294
 Sym=      3.1
 Ene=      -0.5695
 Spin= Alpha
 Occup=    2.000000
1 -0.000000000727844
2 -0.000000024192574
3 -0.000000028234146
4 -0.54026779469096
5 0.35573885616005
6 0.000000128855304
7 0.096815425093910
8 -0.063748029721947
9 -0.000000033796328
10 -0.005635378920438
11 0.005635372757758
12 0.000000006162680
13 -0.022550163455351
14 -0.011551958804317
15 0.007606374297513
16 0.61363969194692
17 -0.17204565055964
18 0.011996234540972
19 -0.016804283207992
20 -0.006211545764707
21 -0.43071676906874
22 0.12075969246915
23 0.011797891409875
24 0.012325394530009
25 0.004359913578670
26 -0.18292298959190
27 0.051285958482914
28 -0.013329981198988
29 -0.002411220160994
30 0.001851627528739
31 -0.000000009974668
32 0.000000010917506
33 -0.002823378431246
34 0.001859051186922
35 -0.000000001417932
 Sym=      4.1
 Ene=      -0.5695
 Spin= Alpha
 Occup=    2.000000
1 0.000000000642046
2 0.000000047762334
3 0.000000037051444
4 -0.35573884307371
5 -0.54026775658043
6 -0.000000181590072
7 0.063748000087053
8 0.096815370369061
9 0.000000047539632
10 -0.019529016023114
11 0.019529024135910
12 -0.000000008112796
13 0.006507172790202
14 -0.007606368308525
15 -0.011551940594441
16 -0.14306376891363
17 0.040110668211514
18 -0.012210881961685
19 -0.005020141727172
20 0.001448155130695
21 -0.45989563196079
22 0.12894053303953
23 0.016918799554264
24 -0.004821797834278
25 0.004655269770982
26 0.60295947859743
27 -0.16905119848475
28 0.002182186414417
29 0.020306082300728
30 -0.006103418755898
31 0.000000013766776
32 -0.000000015436299
33 -0.001859051542796
34 -0.002823379306377
35 0.000000001981311
 Sym=      5.1
 Ene=      -0.3738
 Spin= Alpha
 Occup=    1.867396
1 0.003485484264705
2 -0.11186303055652
3 -0.037626574093934
4 0.000000006351389
5 -0.000000199350461
6 0.53538814434807
7 -0.000000000549673
8 -0.000000013618509
9 0.017356640747702
10 0.011193210821806
11 0.011193212306856
12 -0.022386423128663
13 0.000000000391756
14 0.000000000114346
15 0.000000009926948
16 0.080639588598017
17 -0.009850440851452
18 0.001722818260482
19 -0.001814611031387
20 0.010615172317967
21 0.080639591071956
22 -0.009850430248195
23 -0.002432904258075
24 -0.000584704855400
25 0.010615171946016
26 0.080639603749627
27 -0.009850413640677
28 0.000710086602675
29 0.002399302331665
30 0.010615172180408
31 -0.63119589834472
32 0.001909663676309
33 0.000000000198258
34 0.000000001332632
35 -0.012570981451877
 Sym=      6.1
 Ene=       0.1772
 Spin= Alpha
 Occup=    0.132604
1 -0.009920188313010
2 -0.30842742911976
3 -0.058507703104180
4 0.000000007048343
5 -0.000000268414374
6 0.81526977303095
7 0.000000001827857
8 -0.000000006133092
9 0.000076117119721
10 0.017699947231323
11 0.017699947144825
12 -0.035399894376148
13 -0.000000000915243
14 -0.000000000376592
15 0.000000025364665
16 0.044088941938569
17 -0.014614504256161
18 -0.000460728923358
19 0.000485272060507
20 0.013319849167726
21 0.044088916798987
22 -0.014614500676075
23 0.000650628152222
24 0.000156361583915
25 0.013319847251575
26 0.044088878966980
27 -0.014614490727511
28 -0.000189898202421
29 -0.000641650643161
30 0.013319844611353
31 1.05656645440841
32 -0.18156315148835
33 0.000000000024794
34 0.000000001722408
35 -0.015696967415168
 Sym=      7.1
 Ene=       0.2014
 Spin= Alpha
 Occup=    0.000000
1 -0.087171685134216
2 0.16014306256391
3 2.08161718925433
4 0.000000014158173
5 -0.000000180242837
6 0.17305770756975
7 0.000000037150962
8 -0.000000286598105
9 0.25373229969406
10 0.007569701586434
11 0.007569699801126
12 -0.015139401387560
13 -0.000000004731518
14 0.000000000169347
15 0.000000012963320
16 -0.055551832075531
17 -1.02173962095787
18 -0.010369650916022
19 0.010922122401628
20 0.007087424880165
21 -0.055551853993439
22 -1.02173970515129
23 0.014643664742415
24 0.003519310827158
25 0.007087419413005
26 -0.055551920802891
27 -1.02173985869448
28 -0.004274014784339
29 -0.014441447772456
30 0.007087409913120
31 0.11068638378914
32 0.014815888333342
33 -0.000000000175325
34 0.000000000330288
35 -0.004688706155336
 Sym=      8.1
 Ene=       0.2663
 Spin= Alpha
 Occup=    0.000000
1 0.000000012345957
2 -0.000000010000018
3 -0.000000668204308
4 -0.20205392741303
5 -0.41112171300960
6 -0.000000177413993
7 -0.52739212552731
8 -1.07309158689137
9 -0.000000498465334
10 -0.016635993411116
11 0.016635991854527
12 0.000000001556589
13 0.008267549952766
14 -0.008101235061376
15 -0.016483688895088
16 0.018064684217989
17 0.73091835113852
18 0.004518391413884
19 -0.008892006959059
20 -0.001237201864774
21 0.033229292126182
22 1.34449331334660
23 -0.016552014193775
24 -0.006379497101580
25 -0.002275776647802
26 -0.051294051314912
27 -2.07541076628484
28 -0.008192694529223
29 -0.025883240443293
30 0.003512962614867
31 0.000000005514341
32 -0.000000103851153
33 0.000808747596703
34 0.001645570339050
35 -0.000000000779356
 Sym=      9.1
 Ene=       0.2663
 Spin= Alpha
 Occup=    0.000000
1 -0.000000006046488
2 0.000000015858240
3 0.000000384637745
4 -0.41112167930585
5 0.20205390521628
6 0.000000096845773
7 -1.07309174217577
8 0.52739226163170
9 0.000000273840144
10 -0.007159910258254
11 0.007159909767323
12 0.000000000490931
13 -0.019209596040405
14 -0.016483708007224
15 0.008101246435047
16 -0.048799475107168
17 -1.97448322829178
18 -0.018544505713340
19 0.018002607549367
20 0.003342144345728
21 0.040044246928829
22 1.62023506888842
23 -0.021056999870592
24 -0.003067799066135
25 -0.002742515531586
26 0.008755250446858
27 0.35424766173753
28 -0.001553243407968
29 0.005291508417904
30 -0.000599620179212
31 -0.000000004873791
32 0.000000063483118
33 0.001645568881276
34 -0.000808748273001
35 0.000000001014980
 Sym=     10.1
 Ene=       0.5944
 Spin= Alpha
 Occup=    0.000000
1 0.000000001151726
2 0.000000024054102
3 -0.000000050205066
4 0.44025352272168
5 0.068754167063188
6 -0.000000044290518
7 -1.53036262375218
8 -0.23899573974599
9 0.000000050448510
10 0.084222382142639
11 -0.084222396316347
12 0.000000014173708
13 0.059981099233310
14 0.046982989360132
15 0.007337274960292
16 -0.74960960725331
17 0.32110837189345
18 -0.030614022875178
19 -0.032452633531285
20 -0.006744816388739
21 1.31453077068681
22 -0.56310267355782
23 0.003165440407632
24 0.005262813771977
25 0.011827819768175
26 -0.56492139900675
27 0.24199451744458
28 -0.046386844723921
29 0.015658982990524
30 -0.005083016849757
31 -0.000000082603990
32 0.000000123027256
33 -0.060589517952061
34 -0.009462227871601
35 0.000000005927107
 Sym=     11.1
 Ene=       0.5944
 Spin= Alpha
 Occup=    0.000000
1 0.000000042475736
2 0.000000243628269
3 0.000000074833409
4 0.068754221646569
5 -0.44025350013596
6 -0.000000335116721
7 -0.23899633618634
8 1.53036250574673
9 0.000001546628368
10 -0.051945178654211
11 0.051945263397110
12 -0.000000084742898
13 0.097251621175281
14 0.007337344358037
15 -0.046982954778762
16 -1.08510225508098
17 0.46482237067157
18 0.024765416282970
19 0.018609572758877
20 -0.009763505175378
21 -0.10662998574459
22 0.045676877513333
23 -0.012950060697017
24 0.052389060344739
25 -0.000959437652771
26 1.19173202943798
27 -0.51050019507800
28 -0.023346212152732
29 0.002836806475131
30 0.010722883242471
31 -0.000001722092623
32 0.000002727913441
33 -0.009462247379384
34 0.060589514950509
35 0.000000003304095
 Sym=     12.1
 Ene=       0.6096
 Spin= Alpha
 Occup=    0.000000
1 0.10318925288704
2 0.47864852585466
3 -0.65740061058093
4 -0.000000086603305
5 0.000000437186160
6 -0.29093840197642
7 0.000000331003668
8 -0.000001658906449
9 0.96211532186324
10 0.028493438404624
11 0.028493318187482
12 -0.056986756592106
13 -0.000000119671805
14 -0.000000010716221
15 0.000000064886913
16 -0.042003303578199
17 -0.14421832081284
18 0.001984731662195
19 -0.002090518218774
20 -0.038567763137803
21 -0.042004414064696
22 -0.14421783451131
23 -0.002802808017621
24 -0.000673659767167
25 -0.038567777790170
26 -0.042005595813529
27 -0.14421730355133
28 0.000818092356860
29 0.002764146742794
30 -0.038567794411494
31 -1.76189734728028
32 2.65058805637401
33 0.000000014155262
34 -0.000000062337558
35 -0.003922909822356
 Sym=     13.1
 Ene=       0.6912
 Spin= Alpha
 Occup=    0.000000
1 -0.067634745849516
2 -0.035990388204052
3 0.58183238697520
4 -0.000000046071400
5 0.000000133071511
6 -0.81727588810430
7 0.000000171968605
8 0.000000035405872
9 1.31340002936987
10 -0.10588871030950
11 -0.10588873429078
12 0.21177744460028
13 -0.000000016685695
14 -0.000000005156614
15 -0.000000104628229
16 -0.85072094014358
17 0.51806346665727
18 0.039006733453985
19 -0.041084939685429
20 -0.005534976902618
21 -0.85072117722285
22 0.51806377526652
23 -0.055083975535696
24 -0.013238344864567
25 -0.005534959459109
26 -0.85072116531723
27 0.51806439879840
28 0.016077250596386
29 0.054323324060012
30 -0.005534917921660
31 0.52194726462275
32 -0.34650749600078
33 0.000000007613206
34 -0.000000010956720
35 0.12338603189070
 Sym=     14.1
 Ene=       0.8626
 Spin= Alpha
 Occup=    0.000000
1 0.15293593218684
2 0.93029567516221
3 -1.56449729892995
4 0.000000169533263
5 -0.000004375549790
6 1.12313669301823
7 -0.000000257791221
8 0.000007582388968
9 -1.49326709067651
10 -0.085677211336121
11 -0.085678241137722
12 0.17135545247384
13 -0.000000728010134
14 -0.000000016116387
15 0.000000200442589
16 -0.69929839687439
17 0.94664086550883
18 0.11255158404390
19 -0.11854838334259
20 -0.001410052571539
21 -0.69929964317786
22 0.94664438071025
23 -0.15894203682693
24 -0.038198840992855
25 -0.001410142320460
26 -0.69930200634451
27 0.94665160302771
28 0.046390425713764
29 0.15674805306733
30 -0.001410314669585
31 -0.48765954588844
32 0.025987471747774
33 0.000000001355656
34 0.000000079242848
35 0.022452504316922
 Sym=     15.1
 Ene=       0.8801
 Spin= Alpha
 Occup=    0.000000
1 -0.000000375512102
2 -0.000002408277035
3 0.000004297519987
4 -0.62410560043067
5 -1.08740602912177
6 -0.000003239820290
7 1.13284043296494
8 1.97379663197269
9 0.000004517204391
10 0.25655245683612
11 -0.25655200429024
12 -0.000000452545881
13 -0.10552098977047
14 0.058348146866111
15 0.10166245242790
16 0.17671374999236
17 -0.57238082086669
18 -0.10807545772224
19 0.004907724491314
20 0.019740332791981
21 0.42391563713460
22 -1.37307979029056
23 0.19516462517892
24 -0.011618982852619
25 0.047355021402228
26 -0.60062368091961
27 1.94545284288108
28 0.057856698762296
29 0.25925668448971
30 -0.067095212658680
31 0.000001391084542
32 -0.000000174868737
33 0.012278807266749
34 0.021393892038439
35 -0.000000064454865
 Sym=     16.1
 Ene=       0.8801
 Spin= Alpha
 Occup=    0.000000
1 0.000000231263582
2 0.000001497067867
3 -0.000002679500322
4 -1.08740589247657
5 0.62410552986781
6 0.000002043323411
7 1.97379653626182
8 -1.13284041888126
9 -0.000002842219746
10 0.091383727111836
11 -0.091384007154849
12 0.000000280043013
13 0.29624099786272
14 0.10166272461105
15 -0.058348265705207
16 -0.59151922718820
17 1.91595749117769
18 0.16345645526619
19 -0.20470594825178
20 -0.066078049832648
21 0.44879476845738
22 -1.45367045959064
23 0.17998243687694
24 0.098533514667475
25 0.050134627683673
26 0.14272090862935
27 -0.46228219716141
28 -0.090893409734986
29 -0.038773477665192
30 0.015943330943449
31 -0.000000895567101
32 0.000000129819055
33 0.021393892811891
34 -0.012278805143287
35 0.000000037528682
 Sym=     17.1
 Ene=       1.1429
 Spin= Alpha
 Occup=    0.000000
1 -0.77649070836303
2 -3.46506048909894
3 5.71588480569011
4 0.000000001062937
5 0.000000105954631
6 0.39687207538229
7 0.000000050065491
8 -0.000000098092235
9 -0.19299076992407
10 -0.021402852004789
11 -0.021403109785067
12 0.042805961789857
13 -0.000000158597456
14 -0.000000081124594
15 -0.000000366007572
16 -0.32710766338404
17 -0.62310878060461
18 -0.085835570872151
19 0.090408550470780
20 0.050361836296929
21 -0.32710768774024
22 -0.62310866754057
23 0.12121395774245
24 0.029131215670408
25 0.050361807075452
26 -0.32710759137445
27 -0.62310855658507
28 -0.035378411100820
29 -0.11954002094470
30 0.050362009790554
31 -0.75335691943287
32 0.43721343578216
33 0.000000033645499
34 0.000000137253413
35 0.17262154649382
 Sym=     18.1
 Ene=       1.1667
 Spin= Alpha
 Occup=    0.000000
1 0.000000453215397
2 0.000002047324116
3 -0.000003369971735
4 0.010153596179695
5 0.10898580936387
6 -0.000000215434042
7 -0.005644160244120
8 -0.060582659334312
9 0.000000090950014
10 0.13763902936929
11 -0.13763865952455
12 -0.000000369844732
13 -0.15421248732292
14 -0.052421908143061
15 -0.56268163150672
16 -0.057938990248311
17 0.062665275732473
18 -0.12595889642897
19 -0.085979527420103
20 -0.21490861725681
21 -0.028419785869167
22 0.030738391565537
23 0.055850684371214
24 -0.18123025555720
25 -0.10541582300895
26 0.086359348310040
27 -0.093402534241582
28 0.047435498860281
29 0.023846892780710
30 0.32032435697426
31 0.000000578318575
32 -0.000000378482429
33 0.020694926178333
34 0.22213342345825
35 -0.000000194158723
 Sym=     19.1
 Ene=       1.1667
 Spin= Alpha
 Occup=    0.000000
1 0.000000063964076
2 0.000000280898220
3 -0.000000457275255
4 0.10898577649650
5 -0.010153572997801
6 -0.000000038078386
7 -0.060582617618390
8 0.005644116493591
9 0.000000026784474
10 0.13355193392029
11 -0.13355195079954
12 0.000000016879252
13 0.15893211136402
14 -0.56268151861394
15 0.052421761590507
16 0.066267827333501
17 -0.071672770866628
18 -0.076262352501361
19 -0.11084389506125
20 0.24580107152888
21 -0.083310657761182
22 0.090105834623760
23 0.018988340909882
24 0.070966068709308
25 -0.30901685670953
26 0.017042923392413
27 -0.018432928870519
28 -0.18608889721245
29 0.062550581058989
30 0.063215745940863
31 0.000000059956560
32 -0.000000034838470
33 0.22213339797329
34 -0.020694881102713
35 -0.000000010059546
 Sym=     20.1
 Ene=       1.5457
 Spin= Alpha
 Occup=    0.000000
1 -0.44666388694597
2 -1.68994353131828
3 3.27963982970370
4 0.000000082109078
5 -0.000000978617850
6 0.083012281321163
7 0.000000009162268
8 0.000000181416013
9 0.14726783179283
10 0.31797466654504
11 0.31797547603966
12 -0.63595014258470
13 0.000000653995256
14 0.000000034510590
15 -0.000000042002125
16 -0.95373145913671
17 0.20888848490985
18 0.007190366989762
19 -0.007572296582135
20 -0.19414209299856
21 -0.95373260188953
22 0.20888938514046
23 -0.010154069053904
24 -0.002439071706052
25 -0.19414080119610
26 -0.95373448635680
27 0.20889092132288
28 0.002963458135833
29 0.010014706911108
30 -0.19413871361506
31 0.23574393653694
32 -0.47693610806968
33 0.000000450569330
34 -0.000004702114515
35 -0.52449711884517
 Sym=     21.1
 Ene=       1.5550
 Spin= Alpha
 Occup=    0.000000
1 -0.000002548927987
2 -0.000009593992819
3 0.000018680377411
4 -0.044610809401184
5 0.17647511706050
6 0.000000445836110
7 0.014517814120556
8 -0.057430431824815
9 0.000000906210472
10 0.048216618765249
11 -0.048213012998706
12 -0.000003605766543
13 -0.11237820596585
14 -0.017811686486915
15 0.070460999994866
16 -0.24940002853102
17 0.18358123155504
18 0.023772610612739
19 -0.16836291554954
20 0.30646028132690
21 0.003353667538385
22 -0.002471504983296
23 0.048890379565638
24 -0.19544879460230
25 -0.004129144649840
26 0.24602981574368
27 -0.18110593841404
28 0.059788946921923
29 -0.16015290216834
30 -0.30233478434663
31 0.000001441935274
32 -0.000002844127836
33 -0.20011840616361
34 0.79164542136498
35 -0.000002982588526
 Sym=     22.1
 Ene=       1.5550
 Spin= Alpha
 Occup=    0.000000
1 -0.000000395185370
2 -0.000001485883826
3 0.000002898356374
4 0.17647515413521
5 0.044610750439465
6 0.000000072024178
7 -0.057430594230649
8 -0.014517662483211
9 0.000000138126151
10 0.097322684313670
11 -0.097322121974710
12 -0.000000562338960
13 0.055673502423742
14 0.070460987335940
15 0.017811688148091
16 0.14010812182116
17 -0.10313447227864
18 -0.18094698090675
19 -0.064528575164508
20 -0.17216932240495
21 -0.28603731073482
22 0.21055243238956
23 -0.15386087835504
24 -0.039410958126487
25 0.35148780428783
26 0.14592661296154
27 -0.10741736486226
28 -0.18915672069702
29 -0.028512357338097
30 -0.17931905645547
31 0.000000227866467
32 -0.000000447248673
33 0.79164546169564
34 0.20011838402911
35 -0.000000453351884
 Sym=     23.1
 Ene=       1.6297
 Spin= Alpha
 Occup=    0.000000
1 -0.000000000092607
2 -0.000000000438701
3 0.000000000073816
4 -0.000000090270805
5 0.000000045618628