[Molden Format]
[Molpro variables]
_NUMVAR=  709.0000000000000    
_EV2006= 0.3674930886769165E-01
_EV= 0.3674932534394180E-01
_KJOULE= 0.3808798324128737E-03
_KJOULE/MOL= 0.3808798324128737E-03
_CM= 0.4556335267302901E-05
_CM-1= 0.4556335267302901E-05
_KCAL= 0.1593601117815568E-02
_KCAL/MOL= 0.1593601117815568E-02
_KELVIN2006= 0.3166828861084835E-05
_KELVIN= 0.3166814820820034E-05
_HERTZ2006= 0.1519829850815779E-15
_HERTZ= 0.1519829846011223E-15
_HZ2006= 0.1519829850815779E-15
_HZ= 0.1519829846011223E-15
_TOA2006= 0.5291772490000000    
_TOA= 0.5291772090000000    
_TOANG2006= 0.5291772490000000    
_TOANG= 0.5291772090000000    
_TORAD= 0.1745329251994330E-01
_TOCM=  219474.6306700000    
_TODEBYE=  2.541580000000000    
_TOEV2006=  27.21139610000000    
_TOEV=  27.21138390000000    
_TOHERTZ2006=  6579683899900000.    
_TOHERTZ=  6579683920700000.    
_TOHZ2006=  6579683899900000.    
_TOHZ=  6579683920700000.    
_TOK2006=  315773.3000000000    
_TOK=  315774.7000000000    
_TOKCAL=  627.5096000000000    
_TOKELVIN2006=  315773.3000000000    
_TOKELVIN=  315774.7000000000    
_TOKJ=  2625.500000000000    
_TOKJOULE=  2625.500000000000    
_ANG2006=  1.889725988578923    
_ANG=  1.889726131421507    
_ANGSTROM2006=  1.889725988578923    
_ANGSTROM=  1.889726131421507    
_IGNORE_UNDEF=  2.000000000000000    
_STRICTCHECK=  0.000000000000000    
_SEW_ONEEL=  0.000000000000000    
_CPPDONE=FALSE
_DKROLL_DONE=  0.000000000000000    
_FOCKDONE=  0.000000000000000    
_GRADONE=FALSE
_HESSDONE=TRUE
_INTDONE=TRUE
_SCFDONE=FALSE
_MODUL_CUDA=FALSE
_MODUL_SLATER=FALSE
_MODUL_MRCC=FALSE
_MRCC_EXEC=
_FITC_AO_SAVED=FALSE
_FITC_MO_SAVED=FALSE
_SHARED_FS=TRUE
_LSTYP=SEWARD
_INTYP=INTS
_GEOMTYP=ZMAT
_GRADTYP=ALASKA
_DIRECT=FALSE
_SYNCM=  0.000000000000000    
_BASIS=CC-PVDZ
_ZORIENT=  1.000000000000000    
_NELEC=  16.00000000000000    
_SPIN=  0.000000000000000    
!SPIN=  0.000000000000000    
_OPTCONV= 0.2439265851073899E-02
_QSDSTEP=  0.000000000000000    
_QSDIRC=  0.000000000000000    
_PROGRAM=FREQ
_CPUSTEP=  0.000000000000000    
_SYSSTEP=  0.000000000000000    
_WALLSTEP= 0.1500000000000000    
!DFMP2=  0.000000000000000    
!DFSCF=  0.000000000000000    
!SCSGRD=  0.000000000000000    
_BASINP=  610.0000000000000    
_CPUTOT=  92.76000000000001    
_DFTEXFAC=  1.000000000000000    
_DMX=-0.1891053803590601E-04
_DMY= 0.1810166746879682    
_DMZ= 0.2293675326404587    
_FREQUENCIES= -305.1091769871842    
_EMP2= -78.14588284526704    
_ENERGR= -77.92052808644006    
_ENERGU= -78.19339218411740    
_ENERGY= -78.14588284526704    
_ENUC=  30.07185719713962    
_FREQSTEP=  37.00000000000000    
!RS2GRSTATE=  1.000000000000000    
!RS2GRSYM=  1.000000000000000    
_GRADENERG= -78.14587676014072    
_GRADEXFAC=  9999.000000000000    
_GRADMETHOD=TRUE
_GRADRECORD=  5200.100000000000    
_VIRIAL= 0.2232576725157674E-01
!GRID_FREEZE= -1.000000000000000    
_ITERATIONS=  0.000000000000000    
_LASTNELEC=  4.000000000000000    
_LASTSPIN=  0.000000000000000    
_LASTSYM=  1.000000000000000    
_MPP_PROG=  1.000000000000000    
_MSENERGY= -78.14588284526704    
_NPROC_MPP=  4.000000000000000    
_NPROC_SMP=  1.000000000000000    
_NUMSTEP=  0.000000000000000    
_OPTCONVMX= 0.1275293239075072E-02
_OPTCONVRMS= 0.2217514410067181E-03
_OPTGRAD= 0.2248184592612049E-03
_OPTGRADMX= 0.1325427625195055E-03
_OPTGRADRMS= 0.2043804175101863E-04
_OPTSTEP=  5.000000000000000    
_ORBITAL=  2143.200000000000    
_PI=  3.141592653589793    
!MCACT=  4.000000000000000    
!MCCLOSED=  6.000000000000000    
!MCFREEZE=  0.000000000000000    
!MCMS2=  0.000000000000000    
!MCNEL=  4.000000000000000    
!MCNSTSYM=  1.000000000000000    
!MCSTATE=  1.000000000000000    
!MCSYM=  1.000000000000000    
!MCWEIGHT=  1.000000000000000    
_SEIG_MIN= 0.4130201462179157E-02
_SEWPROP=TRUE
_STATUS=  1.000000000000000    
_SYSTOT=  6.560000000000000    
_VERSION=  2010001.000000000    
_WALLTOT=  322.7600000000000    
_ZPE= 0.3738227015673298E-01
_DATE=06-Sep-19
_LASTORB=MCSCF
_MACHINE=Linux-2.6.34-12-desktop/tt109(x86_64) 64 bit mpp version
_OUTPUT=/home/carlo/qm/combustion/barrierless/c2h4_c2h3_h/dist_3.4/molpro.xml
_PGROUP=C1
_TIME=02:20:56
_LIBMOL=/programs/molpro2010p/bin/../lib/
!SURFREC=  0.000000000000000    
!POLYREC=  0.000000000000000    
!DIPREC=  0.000000000000000    
!VSCFREC=  0.000000000000000    
!VCIREC=  0.000000000000000    
!PVCIREC=  0.000000000000000    
!VMP2REC=  0.000000000000000    
!VMCSCFREC=  0.000000000000000    
!GAREC=  0.000000000000000    
!SCFORB=  21002.00000000000    
!MCORB=  21432.00000000000    
!CIOCC=  10.00000000000000    
!CICORE=  2.000000000000000    
!CICLOS=  6.000000000000000    
!CIISTSYM=  1.000000000000000    
!CIISTMS2=  0.000000000000000    
!CIISTNEL=  12.00000000000000    
!NEWMOL=  0.000000000000000    
!NEWSYM=  0.000000000000000    
_SLFILES=slscratch
_NGSSTO=  9.000000000000000    
_SIN=SIN
_COS=COS
_TAN=TAN
_ACOS=ACOS
_ASIN=ASIN
_ATAN=ATAN
_COSH=COSH
_SINH=SINH
_TANH=TANH
_ABS=ABS
_MOD=MOD
_ERF=ERF
_REFC=REFC
_ERFC=ERFC
_HYPOT=HYPOT
_J0=J0
_J1=J1
_JN=JN
_GAMMA=GAMMA
_LGAMMA=LGAMMA
_Y0=Y0
_Y1=Y1
_YN=YN
_EXP=EXP
_LOG=LOG
_LOG10=LOG10
_SQRT=SQRT
_INT=INT
_NINT=NINT
_MAX=MAX
_MIN=MIN
_COSMO=  0.000000000000000    
_COSMOIT=  0.000000000000000    
_COSMOES=  0.000000000000000    
_COSMOEDS=  0.000000000000000    
_COSMOEC=  0.000000000000000    
_COSMOEDCORR=  0.000000000000000    
_FEPSI=  1.000000000000000    
_SL_IsMM=  0.000000000000000    
_SL_NSYM=  0.000000000000000    
_SL_System_BitSw=  0.000000000000000    
_SL_Unique_atoms=  0.000000000000000    
_SL_GRAD=  0.000000000000000    
_SL_MAXUPD_Hess=  5.000000000000000    
_SL_N_PRINT_COD=  5.000000000000000    
_SL_PRINT_CODES=  0.000000000000000    
_SL_BasType=  0.000000000000000    
_SL_Energy_Pred=  0.000000000000000    
_SL_New_Coords=  0.000000000000000    
_SL_Total_Nuclea=  0.000000000000000    
_SL_Highest_Mltp=  0.000000000000000    
_SL_Ref_Geom=  0.000000000000000    
!LATTICE= -1.000000000000000    
!NEWLATTICE=  0.000000000000000    
!LATGRAD_VAR=FALSE
!SEW_LATTICE=  1.000000000000000    
!LOCAL=  0.000000000000000    
!SAVEDOM= -1.000000000000000    
!RESTDOM= -1.000000000000000    
!SAVEDOM_HF= -1.000000000000000    
!RESTDOM_HF= -1.000000000000000    
!HESSREC=  5300.200000000000    
!FREQREC=  5400.200000000000    
!NMODREC=  5450.200000000000    
!GTASKS=  0.000000000000000    
!HTASKS=  5500.200000000000    
!THRCHG= 0.1000000000000000    
!DEBUG= -1.000000000000000    
!CFIT_CPHF=  0.000000000000000    
!RDOMAUX_CPHF=  3.000000000000000    
!THRAO_CPHF= 0.1000000000000000E-09
!THRMO_CPHF= 0.1000000000000000E-09
!THROV_CPHF= 0.1000000000000000E-11
!THRSW_CPHF= 0.1000000000000000E-09
!THRPROD_CPHF= 0.1000000000000000E-09
!THRAOPR_CPHF= 0.1000000000000000E-11
!CFIT_SCFGRD=  0.000000000000000    
!RDOMAUX_SCFGRD=  5.000000000000000    
!THRAO_SCFGRD= 0.1000000000000000E-09
!THRMO_SCFGRD= 0.1000000000000000E-09
!THROV_SCFGRD= 0.1000000000000000E-11
!THRSW_SCFGRD= 0.1000000000000000E-09
!THRPROD_SCFGRD= 0.1000000000000000E-09
!THRAOPR_SCFGRD= 0.1000000000000000E-11
!LOCFIT_SCF=  0.000000000000000    
!LOCFIT_MP2= -1.000000000000000    
_RIDOM=  0.000000000000000    
!CC2_METHOD=  0.000000000000000    
_BASIS2006=FALSE
_SVDDEL= -1.000000000000000    
_SVDDELA= -1.000000000000000    
_SVDDELP= -1.000000000000000    
_SVDDELF= -1.000000000000000    
_SVDDELS= -1.000000000000000    
_SVDDEL_ABS= -1.000000000000000    
_SVDDELA_ABS= -1.000000000000000    
_SVDDELP_ABS= -1.000000000000000    
_SVDDELF_ABS= -1.000000000000000    
_SVDDELS_ABS= -1.000000000000000    
_MAXBASIS=  0.000000000000000    
!OPT_CONICAL=  0.000000000000000    
!CLEARSP_JGRID=  0.000000000000000    
RCC1=  1.333647034686197    
RCC2=  1.100674653464579    
RCC3=  1.095713214225825    
RCH2=  1.092756815569103    
ACCC1=  121.0980096463428    
AHCC1=  121.7536498885544    
AHCC2=  119.2544523416006    
AHCC3=  135.8742443852797    
B1=  179.9999076006721    
B2=  179.9995049962847    
B3=  179.9956862473754    
RCH1=  3.400000000000000    
GX1= 0.1095076491760519E-04
GY1= 0.6152064964431412    
GZ1= -1.008380109088797    
GX2=-0.2233458824751571E-05
GY2=-0.4154784758753437    
GZ2=  1.291453776922619    
GX3= 0.1752381722178077E-04
GY3= 0.7704622822069532    
GZ3=  3.000206223235267    
GX4=-0.3586038504743308E-04
GY4= -2.467821201226517    
GZ4=  1.565798401427664    
GX5=-0.4065956295941522E-05
GY5= -3.216093552068272    
GZ5= -6.166155756070395    
GX6=-0.8147624195700692E-04
GY6=  2.533416700069903    
GZ6= -1.773063369804943    
C1X1= 0.1095076491760584E-04
C1Y1= 0.6152064964431412    
C1Z1= -1.008380109088797    
C2X2=-0.2233458824751552E-05
C2Y2=-0.4154784758753437    
C2Z2=  1.291453776922619    
H3X3= 0.1752381722178002E-04
H3Y3= 0.7704622822069532    
H3Z3=  3.000206223235267    
H4X4=-0.3586038504743358E-04
H4Y4= -2.467821201226517    
H4Z4=  1.565798401427664    
H5X5=-0.4065956295941017E-05
H5Y5= -3.216093552068272    
H5Z5= -6.166155756070395    
H6X6=-0.8147624195700698E-04
H6Y6=  2.533416700069903    
H6Z6= -1.773063369804943    
CBSEN= -78.14588284526704    
[Atoms] Angs
C     1    6         0.0000057949        0.3255532567       -0.5336117717
C     2    6        -0.0000011819       -0.2198617403        0.6834079052
H     3    1         0.0000092732        0.4077110801        1.5876407556
H     4    1        -0.0000189765       -1.3059147356        0.8285848279
H     5    1        -0.0000021516       -1.7018834098       -3.2629890933
H     6    1        -0.0000431154        1.3406263786       -0.9382647254
[GTO]
  1 0
 s    9  1.00
  0.6665000000D+04  0.6920001793D-03
  0.1000000000D+04  0.5329001381D-02
  0.2280000000D+03  0.2707700701D-01
  0.6471000000D+02  0.1017180264D+00
  0.2106000000D+02  0.2747400712D+00
  0.7495000000D+01  0.4485641162D+00
  0.2797000000D+01  0.2850740738D+00
  0.5215000000D+00  0.1520400394D-01
  0.1596000000D+00 -0.3191000827D-02
 s    9  1.00
  0.6665000000D+04 -0.1460000642D-03
  0.1000000000D+04 -0.1154000508D-02
  0.2280000000D+03 -0.5725002519D-02
  0.6471000000D+02 -0.2331201026D-01
  0.2106000000D+02 -0.6395502813D-01
  0.7495000000D+01 -0.1499810660D+00
  0.2797000000D+01 -0.1272620560D+00
  0.5215000000D+00  0.5445292395D+00
  0.1596000000D+00  0.5804962554D+00
 s    9  1.00
  0.6665000000D+04  0.0000000000D+00
  0.1000000000D+04  0.0000000000D+00
  0.2280000000D+03  0.0000000000D+00
  0.6471000000D+02  0.0000000000D+00
  0.2106000000D+02  0.0000000000D+00
  0.7495000000D+01  0.0000000000D+00
  0.2797000000D+01  0.0000000000D+00
  0.5215000000D+00  0.0000000000D+00
  0.1596000000D+00  0.1000000000D+01
 p    4  1.00
  0.9439000000D+01  0.3810902127D-01
  0.2002000000D+01  0.2094801169D+00
  0.5456000000D+00  0.5085572839D+00
  0.1517000000D+00  0.4688422617D+00
 p    4  1.00
  0.9439000000D+01  0.0000000000D+00
  0.2002000000D+01  0.0000000000D+00
  0.5456000000D+00  0.0000000000D+00
  0.1517000000D+00  0.1000000000D+01
 d    1  1.00
  0.5500000000D+00  0.1000000000D+01
  
  2 0
 s    9  1.00
  0.6665000000D+04  0.6920001793D-03
  0.1000000000D+04  0.5329001381D-02
  0.2280000000D+03  0.2707700701D-01
  0.6471000000D+02  0.1017180264D+00
  0.2106000000D+02  0.2747400712D+00
  0.7495000000D+01  0.4485641162D+00
  0.2797000000D+01  0.2850740738D+00
  0.5215000000D+00  0.1520400394D-01
  0.1596000000D+00 -0.3191000827D-02
 s    9  1.00
  0.6665000000D+04 -0.1460000642D-03
  0.1000000000D+04 -0.1154000508D-02
  0.2280000000D+03 -0.5725002519D-02
  0.6471000000D+02 -0.2331201026D-01
  0.2106000000D+02 -0.6395502813D-01
  0.7495000000D+01 -0.1499810660D+00
  0.2797000000D+01 -0.1272620560D+00
  0.5215000000D+00  0.5445292395D+00
  0.1596000000D+00  0.5804962554D+00
 s    9  1.00
  0.6665000000D+04  0.0000000000D+00
  0.1000000000D+04  0.0000000000D+00
  0.2280000000D+03  0.0000000000D+00
  0.6471000000D+02  0.0000000000D+00
  0.2106000000D+02  0.0000000000D+00
  0.7495000000D+01  0.0000000000D+00
  0.2797000000D+01  0.0000000000D+00
  0.5215000000D+00  0.0000000000D+00
  0.1596000000D+00  0.1000000000D+01
 p    4  1.00
  0.9439000000D+01  0.3810902127D-01
  0.2002000000D+01  0.2094801169D+00
  0.5456000000D+00  0.5085572839D+00
  0.1517000000D+00  0.4688422617D+00
 p    4  1.00
  0.9439000000D+01  0.0000000000D+00
  0.2002000000D+01  0.0000000000D+00
  0.5456000000D+00  0.0000000000D+00
  0.1517000000D+00  0.1000000000D+01
 d    1  1.00
  0.5500000000D+00  0.1000000000D+01
  
  3 0
 s    4  1.00
  0.1301000000D+02  0.1968498999D-01
  0.1962000000D+01  0.1379769298D+00
  0.4446000000D+00  0.4781477569D+00
  0.1220000000D+00  0.5012397451D+00
 s    4  1.00
  0.1301000000D+02  0.0000000000D+00
  0.1962000000D+01  0.0000000000D+00
  0.4446000000D+00  0.0000000000D+00
  0.1220000000D+00  0.1000000000D+01
 p    1  1.00
  0.7270000000D+00  0.1000000000D+01
  
  4 0
 s    4  1.00
  0.1301000000D+02  0.1968498999D-01
  0.1962000000D+01  0.1379769298D+00
  0.4446000000D+00  0.4781477569D+00
  0.1220000000D+00  0.5012397451D+00
 s    4  1.00
  0.1301000000D+02  0.0000000000D+00
  0.1962000000D+01  0.0000000000D+00
  0.4446000000D+00  0.0000000000D+00
  0.1220000000D+00  0.1000000000D+01
 p    1  1.00
  0.7270000000D+00  0.1000000000D+01
  
  5 0
 s    4  1.00
  0.1301000000D+02  0.1968498999D-01
  0.1962000000D+01  0.1379769298D+00
  0.4446000000D+00  0.4781477569D+00
  0.1220000000D+00  0.5012397451D+00
 s    4  1.00
  0.1301000000D+02  0.0000000000D+00
  0.1962000000D+01  0.0000000000D+00
  0.4446000000D+00  0.0000000000D+00
  0.1220000000D+00  0.1000000000D+01
 p    1  1.00
  0.7270000000D+00  0.1000000000D+01
  
  6 0
 s    4  1.00
  0.1301000000D+02  0.1968498999D-01
  0.1962000000D+01  0.1379769298D+00
  0.4446000000D+00  0.4781477569D+00
  0.1220000000D+00  0.5012397451D+00
 s    4  1.00
  0.1301000000D+02  0.0000000000D+00
  0.1962000000D+01  0.0000000000D+00
  0.4446000000D+00  0.0000000000D+00
  0.1220000000D+00  0.1000000000D+01
 p    1  1.00
  0.7270000000D+00  0.1000000000D+01
 
 
[MO]
 Sym=      1.1
 Ene=     -11.2453
 Spin= Alpha
 Occup=    2.000000
1 0.99433391294538
2 0.006563989051460
3 -0.007144642562605
4 -0.000000292856483
5 0.001240663841648
6 0.000805570000223
7 0.000000094528420
8 -0.000906987274777
9 -0.001030735698524
10 -0.000654103023932
11 0.000507640044733
12 0.000146462979199
13 -0.000000043826032
14 0.000000021505743
15 -0.001177867230887
16 0.11548749549655
17 -0.000411537913951
18 0.001420218719391
19 -0.000000214420813
20 -0.000248241668927
21 0.000431032717546
22 0.000000000305867
23 0.001195156016926
24 -0.001049556421974
25 0.000242280995624
26 0.000219849099462
27 -0.000462130095086
28 -0.000000006886878
29 0.000000034778983
30 -0.000301344520551
31 0.000116560122070
32 0.000120550914788
33 -0.000000010992022
34 -0.000172554171741
35 -0.000155372136288
36 0.000036567146259
37 0.000859612586691
38 -0.000000002276297
39 0.000005161819806
40 -0.000128465366337
41 -0.000190671578699
42 0.000112963769929
43 -0.000000000169632
44 0.000001159063557
45 0.000003172535261
46 -0.001430456275193
47 0.002253842512478
48 -0.000000055874195
49 0.000876250170992
50 0.000012964086174
 Sym=      2.1
 Ene=     -11.2383
 Spin= Alpha
 Occup=    2.000000
1 -0.11650442067168
2 -0.001661475629301
3 0.003450202819325
4 0.000000032217263
5 -0.000062777740983
6 -0.000432792327547
7 -0.000000007395074
8 -0.000556418431863
9 0.001213760751438
10 0.000385272074985
11 -0.000196230807267
12 -0.000189041267718
13 0.000000006844638
14 -0.000000007059998
15 0.000275719669895
16 0.99472759282059
17 0.008483207747869
18 -0.009577571738134
19 0.000000054906984
20 -0.000025938610887
21 -0.000039159355828
22 -0.000000029776866
23 -0.000241586591502
24 0.000663978139694
25 -0.000751628866744
26 0.000258298221655
27 0.000493330645089
28 0.000000016654978
29 -0.000000000042104
30 -0.000080108666212
31 -0.000580628674900
32 0.001467284650995
33 0.000000005212683
34 0.000386412083945
35 0.000411473761494
36 -0.000565394571357
37 0.001467224473698
38 -0.000000009764141
39 -0.000545319264023
40 0.000007863705539
41 0.000037562266801
42 -0.000037296459650
43 0.000000000017754
44 0.000000695871678
45 -0.000003142515992
46 0.000325811693265
47 -0.000034530469650
48 0.000000018625694
49 -0.000228093847157
50 0.000044860247221
 Sym=      3.1
 Ene=      -1.0145
 Spin= Alpha
 Occup=    2.000000
1 -0.017742607481912
2 0.55796993113430
3 -0.12471902088923
4 -0.000011403456116
5 -0.045528816579901
6 0.22821065193587
7 0.000001179598250
8 0.013743316862233
9 -0.057913554907919
10 -0.010423966910219
11 -0.006820793133390
12 0.017244760043609
13 0.000000195933735
14 -0.000000646340541
15 -0.015387330855182
16 -0.023401865006178
17 0.65797889146243
18 -0.18682083880171
19 -0.000007109689549
20 0.077710293404153
21 -0.15916579342377
22 -0.000000337497991
23 -0.027808048810480
24 0.065969061008175
25 -0.007227580098268
26 -0.005113493614686
27 0.012341073712954
28 -0.000000190814714
29 0.000000293686510
30 -0.013768826764332
31 0.20986157624191
32 -0.10304347646543
33 -0.000000339024460
34 -0.009784619958426
35 -0.017923976398029
36 0.21527710263938
37 -0.097474929186353
38 0.000000171626081
39 0.019571447420327
40 -0.004842010277229
41 -0.001870132552113
42 -0.001490270512095
43 -0.000000005341132
44 0.000075562971471
45 0.000125309444417
46 0.16568859486137
47 -0.070895893977542
48 0.000000333006355
49 -0.012259552285828
50 0.008384556556142
 Sym=      4.1
 Ene=      -0.7576
 Spin= Alpha
 Occup=    2.000000
1 -0.011655006691326
2 0.51766652281418
3 -0.090134046687579
4 -0.000017163223795
5 0.23965194716220
6 -0.082885501750091
7 0.000002750730822
8 -0.054435717043307
9 0.021299148052558
10 -0.002619758031544
11 0.008248110904807
12 -0.005628352873263
13 -0.000000560035392
14 -0.000000169299315
15 -0.001140899162785
16 0.011034507571074
17 -0.37950182722323
18 0.056883466371691
19 -0.000007183984520
20 0.17270938983023
21 -0.24928901612721
22 -0.000000134161379
23 -0.038573011818921
24 0.055962315559934
25 0.000771672742325
26 -0.006271264611051
27 0.005499591868726
28 -0.000000440174654
29 0.000000450956587
30 -0.014212078815630
31 -0.28770462009200
32 0.10111160872904
33 0.000000040821677
34 0.013668164601840
35 0.011991901107188
36 -0.34947147418746
37 0.13716582959754
38 -0.000000591738742
39 -0.022042226626850
40 -0.001648393401728
41 -0.002385958801589
42 -0.002184684673867
43 -0.000000005782160
44 0.000148610627686
45 0.000135578221454
46 0.48277763450225
47 -0.17800996429104
48 0.000001238076294
49 -0.026353904897174
50 0.011041821612462
 Sym=      5.1
 Ene=      -0.6106
 Spin= Alpha
 Occup=    2.000000
1 -0.002504903035216
2 -0.10248812385624
3 0.056131023870095
4 -0.000003789750381
5 0.38254309089565
6 -0.30903447084447
7 0.000001872389522
8 -0.10227828711567
9 0.080476135824665
10 -0.000144115371986
11 0.006678576780193
12 -0.006534461408207
13 -0.000000932753731
14 0.000000646491231
15 0.010724743224814
16 -0.002769331757860
17 0.007138499683856
18 0.019337115893528
19 0.000004276972498
20 0.13567395491582
21 0.57251373759864
22 0.000000061396438
23 -0.020566411172030
24 -0.12310680826925
25 -0.000771231798927
26 0.007918766382376
27 -0.007147534583449
28 0.000000024392112
29 0.000000469324824
30 0.016185580902607
31 0.53529217610200
32 -0.15722894769963
33 -0.000000218250813
34 -0.015755239038343
35 -0.015103291590218
36 -0.047783529860162
37 0.018925494711003
38 0.000000048941940
39 -0.000732247268146
40 0.009885893071316
41 0.002715440110624
42 0.002073954869176
43 0.000000000635681
44 0.000092395507952
45 -0.000083594266351
46 0.37093252860321
47 -0.11178550705406
48 0.000001093176261
49 -0.014882834398419
50 0.002372877928555
 Sym=      6.1
 Ene=      -0.5711
 Spin= Alpha
 Occup=    2.000000
1 0.002408981645202
2 -0.028944338307007
3 -0.029679428864376
4 0.000006940939436
5 -0.17855259982766
6 0.30818432537466
7 -0.000002532849694
8 0.038448456919794
9 -0.089010134406918
10 0.001913148225335
11 -0.023822656314364
12 0.021909508089029
13 0.000000595933853
14 -0.000000339999538
15 0.013808944137414
16 0.000916696587245
17 0.035031792623046
18 -0.010489895003831
19 0.000007444905158
20 0.59988625471536
21 -0.065656551103600
22 -0.000002714779662
23 -0.11580106363095
24 0.012503251391991
25 -0.000443745145321
26 -0.020508440035312
27 0.020952185180634
28 -0.000000053707353
29 -0.000000200151836
30 0.006616044659440
31 0.31806484492126
32 -0.079995509490342
33 -0.000000041640738
34 0.001875280445564
35 -0.015021591674922
36 -0.59452577666509
37 0.16120292915309
38 -0.000000397030729
39 -0.020669765605962
40 0.003836061205299
41 0.004179193877502
42 0.003297151338187
43 0.000000000689414
44 -0.000135876398882
45 -0.000146463373109
46 -0.31883352232222
47 0.075978958085816
48 -0.000000463239482
49 0.009513945661726
50 -0.001222698655397
 Sym=      7.1
 Ene=      -0.3642
 Spin= Alpha
 Occup=    1.898195
1 -0.000000036928017
2 0.000032124948228
3 0.000002280930974
4 0.60231118050734
5 0.000003428349678
6 -0.000010391391302
7 -0.012349522200442
8 0.000001866192573
9 -0.000000372894794
10 0.000000122921021
11 0.000000253329174
12 -0.000000376250194
13 -0.009219623767042
14 0.027512378416432
15 -0.000000426763123
16 -0.000000249379877
17 -0.000002658154958
18 -0.000000348261244
19 0.60427779182421
20 -0.000007346454098
21 -0.000001664929227
22 0.001310529246040
23 -0.000001150260629
24 0.000000309952446
25 0.000000405456586
26 -0.000000245194383
27 -0.000000160262203
28 0.011872215992204
29 -0.025409484267058
30 -0.000000376109156
31 -0.000002224856405
32 0.000000869846325
33 0.013317822611440
34 -0.000000229901148
35 -0.000000029156022
36 -0.000001594004581
37 0.000002220684705
38 0.013248848782527
39 -0.000000419857193
40 0.000000044018483
41 -0.000000483684806
42 0.000000060543472
43 0.000325936048370
44 0.000000034271131
45 0.000000037028540
46 -0.000000187415470
47 -0.000000268616577
48 0.014173641287126
49 0.000000528195745
50 -0.000000281827068
 Sym=      8.1
 Ene=      -0.1871
 Spin= Alpha
 Occup=    1.168523
1 0.001263420302530
2 0.23806644147710
3 0.084769290928207
4 -0.000007373661514
5 -0.39222488933265
6 -0.43335745603942
7 -0.000001827566364
8 -0.022978739985983
9 -0.017769846494266
10 0.002117515081291
11 -0.005487722837136
12 0.003370207755844
13 0.000000875675942
14 -0.000000120030702
15 0.018195249446879
16 -0.001566046308786
17 -0.079002004877887
18 0.021109694441432
19 -0.000006554481347
20 -0.000964020584861
21 0.097959586874557
22 -0.000000186691362
23 0.046505628306807
24 -0.006805051503104
25 0.000949837659019
26 -0.017933014769546
27 0.016983177110527
28 -0.000000376497780
29 0.000000571586993
30 0.018857428462094
31 0.12593719367397
32 0.009409801680608
33 -0.000000163431938
34 -0.000480799383220
35 0.000368087928204
36 -0.093961213260479
37 0.016049433594675
38 -0.000000164333166
39 0.000055485436364
40 0.002859529538040
41 0.67844072471604
42 0.022034100686584
43 -0.000000019543121
44 0.000419585553254
45 0.000498930037527
46 -0.14839398494505
47 0.018211653837062
48 -0.000000436402892
49 -0.004197350924971
50 -0.010396451839642
 Sym=      9.1
 Ene=      -0.1215
 Spin= Alpha
 Occup=    0.831484
1 -0.001598327234996
2 -0.25901475083176
3 -0.10245951256595
4 0.000007400212786
5 0.41879127847849
6 0.46749515069879
7 0.000001990179950
8 0.029860918558073
9 0.011124573188810
10 -0.001377136449106
11 0.005574700945926
12 -0.004197564496820
13 -0.000000937222413
14 0.000000131181265
15 -0.020682366585670
16 0.000918523688755
17 0.079203160885777
18 -0.011563800974236
19 0.000006898993542
20 0.000815057532302
21 -0.10652806545511
22 0.000000049145002
23 -0.052848809368416
24 -0.004791275488992
25 -0.001698574535167
26 0.018824965838149
27 -0.017126391302982
28 0.000000405784036
29 -0.000000619504137
30 -0.019875729661912
31 -0.13330261824629
32 -0.003083905294524
33 0.000000162895883
34 0.000416235512474
35 0.000042035017102
36 0.094894368546844
37 -0.013835725801295
38 0.000000166930169
39 0.000018466247274
40 -0.003123181338991
41 0.73802401015046
42 -0.022888485232778
43 -0.000000017424279
44 -0.001042555507427
45 -0.001519901567014
46 0.15229851721551
47 -0.019042917898401
48 0.000000439746746
49 0.004037122154662
50 0.010580497817708
 Sym=     10.1
 Ene=       0.2177
 Spin= Alpha
 Occup=    0.101798
1 0.000003319232831
2 0.000035866785619
3 0.000005734443451
4 0.88853202077428
5 0.000015952086884
6 -0.000004734143863
7 -0.028652279051249
8 -0.000001443771973
9 0.000013386652607
10 0.000007607183277
11 -0.000004512237583
12 -0.000003094945695
13 -0.006612494741470
14 -0.012767637938437
15 0.000002593970094
16 0.000000231679250
17 -0.000007972517077
18 -0.000010179207798
19 -0.85644468870771
20 0.000005960031276
21 0.000012329200380
22 0.007793035025216
23 -0.000003173362272
24 0.000004850550967
25 0.000000388784344
26 0.000000622202500
27 -0.000001010986844
28 0.004028044586794
29 -0.009518376901953
30 -0.000000454388808
31 -0.000004362621164
32 -0.000002730794671
33 -0.011151772070282
34 0.000000147443988
35 0.000000218426574
36 0.000008293915515
37 -0.000002593525024
38 -0.010916831548323
39 0.000000237820705
40 0.000000097862607
41 0.000002367406921
42 -0.000001701726783
43 0.000070947641390
44 -0.000000062861939
45 -0.000000081593226
46 -0.000018303189873
47 0.000003995494494
48 0.011763640208543
49 0.000000420869971
50 -0.000000340773543
 Sym=     11.1
 Ene=       0.2110
 Spin= Alpha
 Occup=    0.000000
1 0.018520357020902
2 -0.062711809196933
3 -0.68146637066384
4 0.000006419118384
5 -0.13621175648537
6 0.10208545889779
7 0.000019713500345
8 -0.33501837358437
9 0.17775520754272
10 0.004783268519850
11 -0.007879699733657
12 0.003096431213807
13 0.000001554925010
14 -0.000000334590922
15 0.011485463801986
16 0.061050983180467
17 -0.15184223169008
18 -1.70256329358742
19 -0.000000625370881
20 0.038093352055170
21 -0.24704475248916
22 -0.000006940336213
23 0.20235602951402
24 -0.49001833523968
25 0.020502709842616
26 -0.019211559944395
27 -0.001291149898221
28 -0.000000915512385
29 -0.000000389552457
30 -0.003458279013353
31 0.028753918369587
32 1.38588971958480
33 -0.000000186502953
34 -0.009965527469895
35 -0.016500544768168
36 0.036387440242595
37 1.07565807024035
38 0.000000402253843
39 0.018309805031323
40 -0.004100717377221
41 -0.057747707310128
42 0.042240765691169
43 0.000000002860286
44 0.000330489484107
45 0.002665292843200
46 -0.035498953761839
47 0.92493872874801
48 0.000000527671548
49 -0.009359979228272
50 0.012662184710483
 Sym=     12.1
 Ene=       0.2247
 Spin= Alpha
 Occup=    0.000000
1 0.041220501289340
2 -0.15608229829775
3 -1.08866106843004
4 0.000018361614622
5 -0.26711271654124
6 0.037473711533606
7 0.000042457475599
8 -0.57860530346313
9 0.27101610266380
10 0.010632116941702
11 -0.019878282082638
12 0.009246165140935
13 0.000001890014314
14 -0.000000574350607
15 -0.000662160722244
16 -0.025764659289684
17 0.15566522607221
18 0.65051615002736
19 -0.000006362451449
20 -0.18791260319659
21 -0.051898400127225
22 -0.000027426298045
23 -0.35841565957441
24 0.11108466351617
25 -0.009390526508055
26 0.001638338215663
27 0.007752188292392
28 0.000000054599583
29 -0.000000893547987
30 0.014561967919840
31 0.011067737102488
32 -0.004977795167403
33 -0.000000139619129
34 0.005539752831945
35 0.001238792677340
36 -0.061468843364006
37 -1.25484408018870
38 -0.000000145497349
39 -0.013808068664573
40 -0.003604886113283
41 -0.004781541813121
42 -0.004457103023752
43 0.000000052657394
44 0.001538633090059
45 0.000415985795782
46 0.083706305690376
47 1.76584690832438
48 0.000001415946088
49 -0.022959361932033
50 0.003756399854492
 Sym=     13.1
 Ene=       0.2696
 Spin= Alpha
 Occup=    0.000000
1 -0.023204040509666
2 0.074282466667587
3 0.81053911995398
4 -0.000007057105949
5 0.080617908372562
6 -0.032447236366071
7 -0.000015569504427
8 0.76024894587283
9 0.11763256313952
10 -0.017536708219700
11 0.026251858975267
12 -0.008715150755568
13 -0.000002056498111
14 0.000000367798705
15 -0.014952901689412
16 0.011941102325297
17 -0.017814390168282
18 -0.22875222507421
19 -0.000006813639201
20 -0.36730830591039
21 -0.16485186802228
22 -0.000010634720057
23 -1.33134438153892
24 -0.51247700711877
25 0.005416089362321
26 0.015347032901743
27 -0.020763122264064
28 0.000000449550735
29 0.000000097372084
30 -0.019393438726951
31 -0.014832920477523
32 1.94225798415977
33 -0.000000206581683
34 -0.010788123832293
35 -0.024664183675053
36 0.032208258713369
37 -1.70583234170674
38 -0.000000535067184
39 -0.020793538062265
40 0.009944251951900
41 0.11189009337784
42 -0.074386512772472
43 -0.000000004450234
44 -0.004769469573840
45 -0.007797946651981
46 0.062676641025486
47 -1.16618877754744
48 -0.000000789870670
49 0.018945519880477
50 -0.010450809577188
 Sym=     14.1
 Ene=       0.4570
 Spin= Alpha
 Occup=    0.000000
1 -0.044096842195264
2 0.18178970997695
3 3.68446903199296
4 0.000011950897184
5 -0.25343193492187
6 0.14819320182838
7 -0.000016685860465
8 -1.37179809089293
9 2.61653777509562
10 -0.030876096730515
11 -0.020321655240398
12 0.051197751970913
13 -0.000001567672231
14 -0.000000603943462
15 -0.047305851739021
16 0.081049666980125
17 0.060154952615751
18 -3.63883657542949
19 0.000007546022000
20 -0.016283449546103
21 0.089737610964476
22 -0.000017534563588
23 -1.19255324581087
24 3.13718111979313
25 0.055631991221475
26 -0.036983023721422
27 -0.018648967500053
28 -0.000001666217984
29 -0.000001297932205
30 0.027016807423743
31 -0.21410390619313
32 -0.68220410328536
33 -0.000000251981751
34 -0.011828433465615
35 0.003238357924735
36 -0.27254026711997
37 -0.22567746004395
38 0.000000760942345
39 0.020776707272910
40 0.009110852477815
41 0.20422840213128
42 -0.18192741434952
43 -0.000000119585263
44 -0.010118902475855
45 -0.006107149315895
46 -0.085415942523228
47 1.16925343245334
48 -0.000001284834376
49 0.015611103349216
50 -0.000582212862041
 Sym=     15.1
 Ene=       0.5967
 Spin= Alpha
 Occup=    0.000000
1 0.16937257191157
2 0.53520018678622
3 -0.85708163279528
4 -0.000008881982293
5 -0.10367398941472
6 0.52987751135322
7 0.000034351382756
8 0.50589006753896
9 -1.35047129697958
10 -0.080710128597219
11 0.064716061369020