
    -----------------------------------------------------------------------
          Psi4: An Open-Source Ab Initio Electronic Structure Package
                               Psi4 1.3.2 release

                         Git: Rev {HEAD} ecbda83 


    R. M. Parrish, L. A. Burns, D. G. A. Smith, A. C. Simmonett,
    A. E. DePrince III, E. G. Hohenstein, U. Bozkaya, A. Yu. Sokolov,
    R. Di Remigio, R. M. Richard, J. F. Gonthier, A. M. James,
    H. R. McAlexander, A. Kumar, M. Saitow, X. Wang, B. P. Pritchard,
    P. Verma, H. F. Schaefer III, K. Patkowski, R. A. King, E. F. Valeev,
    F. A. Evangelista, J. M. Turney, T. D. Crawford, and C. D. Sherrill,
    J. Chem. Theory Comput. 13(7) pp 3185--3197 (2017).
    (doi: 10.1021/acs.jctc.7b00174)


                         Additional Contributions by
    P. Kraus, H. Kruse, M. H. Lechner, M. C. Schieber, R. A. Shaw,
    A. Alenaizan, R. Galvelis, Z. L. Glick, S. Lehtola, and J. P. Misiewicz

    -----------------------------------------------------------------------


    Psi4 started on: Monday, 09 September 2019 03:59PM

    Process ID: 8119
    Host:       Ewan
    PSIDATADIR: /home/snelliott/miniconda/envs/pacc-env-mini/share/psi4
    Memory:     500.0 MiB
    Threads:    1
    
  ==> Input File <==

--------------------------------------------------------------------------
#! 
memory 1 GB

molecule {

0 1
O  
O  1    R1 
H  1    R2  2    A2 
H  2    R3  1    A3  3    D3 
R1   =   1.454052
R2   =   0.976073
A2   =  96.772900
R3   =   0.976073
A3   =  96.772800
D3   = 129.368000
}
set basis 6-31g*
set scf_type pk
set reference rks
set mp2_type conv
optimize('B3LYP')
--------------------------------------------------------------------------

  Memory set to 953.674 MiB by Python driver.
gradient() will perform analytic gradient computation.

*** tstart() called on Ewan
*** at Mon Sep  9 15:59:34 2019

   => Loading Basis Set <=

    Name: 6-31G*
    Role: ORBITAL
    Keyword: BASIS
    atoms 1-2 entry O          line   145 file /home/snelliott/miniconda/envs/pacc-env-mini/share/psi4/basis/6-31gs.gbs 
    atoms 3-4 entry H          line    44 file /home/snelliott/miniconda/envs/pacc-env-mini/share/psi4/basis/6-31gs.gbs 


         ---------------------------------------------------------
                                   SCF
               by Justin Turney, Rob Parrish, Andy Simmonett
                          and Daniel G. A. Smith
                              RKS Reference
                        1 Threads,    953 MiB Core
         ---------------------------------------------------------

  ==> Geometry <==

    Molecular point group: c1
    Full point group: C1

    Geometry (in Angstrom), charge = 0, multiplicity = 1:

       Center              X                  Y                   Z               Mass       
    ------------   -----------------  -----------------  -----------------  -----------------
         O            0.022207831006    -0.010505175973    -0.727025949863    15.994914619570
         O            0.022207831006    -0.010505175973     0.727026050137    15.994914619570
         H            0.022207831006     0.958756201227    -0.842138433970     1.007825032230
         H           -0.727116618678    -0.625306669059     0.842136842563     1.007825032230

  Running in c1 symmetry.

  Rotational constants: A =      9.67497  B =      0.89694  C =      0.84773 [cm^-1]
  Rotational constants: A = 290048.39638  B =  26889.44216  C =  25414.27196 [MHz]
  Nuclear repulsion =   36.774416520214039

  Charge       = 0
  Multiplicity = 1
  Electrons    = 18
  Nalpha       = 9
  Nbeta        = 9

  ==> Algorithm <==

  SCF Algorithm Type is PK.
  DIIS enabled.
  MOM disabled.
  Fractional occupation disabled.
  Guess Type is SAD.
  Energy threshold   = 1.00e-08
  Density threshold  = 1.00e-08
  Integral threshold = 0.00e+00

  ==> Primary Basis <==

  Basis Set: 6-31G*
    Blend: 6-31G*
    Number of shells: 16
    Number of basis function: 34
    Number of Cartesian functions: 34
    Spherical Harmonics?: false
    Max angular momentum: 2

  ==> DFT Potential <==

   => Composite Functional: B3LYP <= 

    B3LYP Hyb-GGA Exchange-Correlation Functional

    P. J. Stephens, F. J. Devlin, C. F. Chabalowski, and M. J. Frisch, J. Phys. Chem. 98, 11623 (1994)

    Deriv               =              1
    GGA                 =           TRUE
    Meta                =          FALSE

    Exchange Hybrid     =           TRUE
    MP2 Hybrid          =          FALSE

   => Exchange Functionals <=

    0.0800   Slater exchange
    0.7200         Becke 88

   => Exact (HF) Exchange <=

    0.2000               HF 

   => Correlation Functionals <=

    0.1900   Vosko, Wilk & Nusair (VWN5_RPA)
    0.8100   Lee, Yang & Parr

   => Molecular Quadrature <=

    Radial Scheme          =       TREUTLER
    Pruning Scheme         =           FLAT
    Nuclear Scheme         =       TREUTLER

    BS radius alpha        =              1
    Pruning alpha          =              1
    Radial Points          =             75
    Spherical Points       =            302
    Total Points           =          87138
    Total Blocks           =            708
    Max Points             =            254
    Max Functions          =             34

  ==> Pre-Iterations <==

   -------------------------------------------------------
    Irrep   Nso     Nmo     Nalpha   Nbeta   Ndocc  Nsocc
   -------------------------------------------------------
     A         34      34       0       0       0       0
   -------------------------------------------------------
    Total      34      34       9       9       9       0
   -------------------------------------------------------

  ==> Integral Setup <==

  Using in-core PK algorithm.
   Calculation information:
      Number of atoms:                   4
      Number of AO shells:              16
      Number of primitives:             38
      Number of atomic orbitals:        34
      Number of basis functions:        34

      Integral cutoff                 1.00e-12
      Number of threads:                 1

  Performing in-core PK
  Using 354620 doubles for integral storage.
  We computed 9304 shell quartets total.
  Whereas there are 9316 unique shell quartets.

  ==> DiskJK: Disk-Based J/K Matrices <==

    J tasked:                  Yes
    K tasked:                  Yes
    wK tasked:                  No
    Memory [MiB]:              633
    Schwarz Cutoff:          1E-12

    OpenMP threads:              1

  Cached 100.0% of DFT collocation blocks in 0.080 [GiB].

  Minimum eigenvalue in the overlap matrix is 1.1115674408E-02.
  Using Symmetric Orthogonalization.

  SCF Guess: Superposition of Atomic Densities via on-the-fly atomic UHF.

  ==> Iterations <==

                        Total Energy        Delta E     RMS |[F,P]|

   @RKS iter SAD:  -151.09464268101348   -1.51095e+02   0.00000e+00 
   @RKS iter   1:  -151.44687072272950   -3.52228e-01   1.37860e-02 DIIS
   @RKS iter   2:  -151.42714496900555    1.97258e-02   1.57956e-02 DIIS
   @RKS iter   3:  -151.53217516069884   -1.05030e-01   9.18589e-04 DIIS
   @RKS iter   4:  -151.53253360552233   -3.58445e-04   9.86861e-05 DIIS
   @RKS iter   5:  -151.53253778654675   -4.18102e-06   1.06800e-05 DIIS
   @RKS iter   6:  -151.53253783487060   -4.83238e-08   1.46494e-06 DIIS
   @RKS iter   7:  -151.53253783584429   -9.73699e-10   1.53324e-07 DIIS
   @RKS iter   8:  -151.53253783585677   -1.24771e-11   2.55569e-08 DIIS
   @RKS iter   9:  -151.53253783585680   -2.84217e-14   6.53768e-09 DIIS
  Energy and wave function converged.


  ==> Post-Iterations <==

    Orbital Energies [Eh]
    ---------------------

    Doubly Occupied:                                                      

       1A    -19.202426     2A    -19.202347     3A     -1.113594  
       4A     -0.891002     5A     -0.510830     6A     -0.498963  
       7A     -0.411467     8A     -0.329562     9A     -0.261606  

    Virtual:                                                              

      10A      0.028623    11A      0.067171    12A      0.114752  
      13A      0.778762    14A      0.779756    15A      0.811722  
      16A      0.840309    17A      0.913847    18A      0.955131  
      19A      0.983110    20A      1.048000    21A      1.184142  
      22A      1.329256    23A      1.499115    24A      1.508673  
      25A      1.717998    26A      1.769661    27A      1.967442  
      28A      2.263000    29A      2.331336    30A      2.482964  
      31A      2.501038    32A      2.946415    33A      3.432945  
      34A      3.642541  

    Final Occupation by Irrep:
              A 
    DOCC [     9 ]

  @RKS Final Energy:  -151.53253783585680

   => Energetics <=

    Nuclear Repulsion Energy =             36.7744165202140394
    One-Electron Energy =                -281.4047491708427629
    Two-Electron Energy =                 107.5337880549543002
    DFT Exchange-Correlation Energy =     -14.4359932401823663
    Empirical Dispersion Energy =           0.0000000000000000
    VV10 Nonlocal Energy =                  0.0000000000000000
    Total Energy =                       -151.5325378358568003

Computation Completed


Properties will be evaluated at   0.000000,   0.000000,   0.000000 [a0]

Properties computed using the SCF density matrix

  Nuclear Dipole Moment: [e a0]
     X:    -0.6606      Y:     0.3125      Z:    -0.0000

  Electronic Dipole Moment: [e a0]
     X:     0.1264      Y:    -0.0598      Z:     0.0000

  Dipole Moment: [e a0]
     X:    -0.5342      Y:     0.2527      Z:    -0.0000     Total:     0.5909

  Dipole Moment: [D]
     X:    -1.3578      Y:     0.6423      Z:    -0.0000     Total:     1.5020


*** tstop() called on Ewan at Mon Sep  9 15:59:36 2019
Module time:
	user time   =       2.08 seconds =       0.03 minutes
	system time =       0.04 seconds =       0.00 minutes
	total time  =          2 seconds =       0.03 minutes
Total time:
	user time   =       2.08 seconds =       0.03 minutes
	system time =       0.04 seconds =       0.00 minutes
	total time  =          2 seconds =       0.03 minutes

*** tstart() called on Ewan
*** at Mon Sep  9 15:59:36 2019


         ------------------------------------------------------------
                                   SCF GRAD                          
                          Rob Parrish, Justin Turney,                
                       Andy Simmonett, and Alex Sokolov              
         ------------------------------------------------------------

  ==> Geometry <==

    Molecular point group: c1
    Full point group: C1

    Geometry (in Angstrom), charge = 0, multiplicity = 1:

       Center              X                  Y                   Z               Mass       
    ------------   -----------------  -----------------  -----------------  -----------------
         O            0.022207831006    -0.010505175973    -0.727025949863    15.994914619570
         O            0.022207831006    -0.010505175973     0.727026050137    15.994914619570
         H            0.022207831006     0.958756201227    -0.842138433970     1.007825032230
         H           -0.727116618678    -0.625306669059     0.842136842563     1.007825032230

  Nuclear repulsion =   36.774416520214039

  ==> Basis Set <==

  Basis Set: 6-31G*
    Blend: 6-31G*
    Number of shells: 16
    Number of basis function: 34
    Number of Cartesian functions: 34
    Spherical Harmonics?: false
    Max angular momentum: 2

  ==> DirectJKGrad: Integral-Direct SCF Gradients <==

    Gradient:                    1
    J tasked:                  Yes
    K tasked:                  Yes
    wK tasked:                  No
    Integrals threads:           1
    Schwarz Cutoff:          0E+00

  ==> DFT Potential <==

   => Composite Functional: B3LYP <= 

    B3LYP Hyb-GGA Exchange-Correlation Functional

    P. J. Stephens, F. J. Devlin, C. F. Chabalowski, and M. J. Frisch, J. Phys. Chem. 98, 11623 (1994)

    Deriv               =              1
    GGA                 =           TRUE
    Meta                =          FALSE

    Exchange Hybrid     =           TRUE
    MP2 Hybrid          =          FALSE

   => Exchange Functionals <=

    0.0800   Slater exchange
    0.7200         Becke 88

   => Exact (HF) Exchange <=

    0.2000               HF 

   => Correlation Functionals <=

    0.1900   Vosko, Wilk & Nusair (VWN5_RPA)
    0.8100   Lee, Yang & Parr

   => Molecular Quadrature <=

    Radial Scheme          =       TREUTLER
    Pruning Scheme         =           FLAT
    Nuclear Scheme         =       TREUTLER

    BS radius alpha        =              1
    Pruning alpha          =              1
    Radial Points          =             75
    Spherical Points       =            302
    Total Points           =          87138
    Total Blocks           =            708
    Max Points             =            254
    Max Functions          =             34


  -Total Gradient:
     Atom            X                  Y                   Z
    ------   -----------------  -----------------  -----------------
       1       -0.003627767939    -0.010665618953     0.003352592515
       2        0.005944481574     0.009569733427    -0.003352399384
       3        0.000245553874     0.003525640624     0.006130135905
       4       -0.002569884340    -0.002426152094    -0.006130329270


*** tstop() called on Ewan at Mon Sep  9 15:59:36 2019
Module time:
	user time   =       0.45 seconds =       0.01 minutes
	system time =       0.00 seconds =       0.00 minutes
	total time  =          0 seconds =       0.00 minutes
Total time:
	user time   =       2.53 seconds =       0.04 minutes
	system time =       0.04 seconds =       0.00 minutes
	total time  =          2 seconds =       0.03 minutes

			-----------------------------------------
			 OPTKING 2.0: for geometry optimizations 
			  - R.A. King,  Bethel University        
			-----------------------------------------

	Internal coordinates to be generated automatically.
	Detected frag 1 with atoms:  1 2 3 4
	---Fragment 1 Bond Connectivity---
	 1 : 2 3
	 2 : 1 4
	 3 : 1
	 4 : 2

	---Fragment 1 Geometry and Gradient---
	 O           0.0419667184       -0.0198519055       -1.3738799313
	 O           0.0419667184       -0.0198519055        1.3738801208
	 H           0.0419667184        1.8117866414       -1.5914109999
	 H          -1.3740512706       -1.1816583489        1.5914079926
	            -0.0036277679       -0.0106656190        0.0033525925
	             0.0059444816        0.0095697334       -0.0033523994
	             0.0002455539        0.0035256406        0.0061301359
	            -0.0025698843       -0.0024261521       -0.0061303293

	Previous optimization step data not found.  Starting new optimization.

	---Fragment 1 Intrafragment Coordinates---
	 - Coordinate -           - BOHR/RAD -       - ANG/DEG -
	 R(1,2)           =         2.747760	       1.454052
	 R(1,3)           =         1.844511	       0.976073
	 R(2,4)           =         1.844511	       0.976073
	 B(1,2,4)         =         1.689004	      96.772800
	 B(2,1,3)         =         1.689006	      96.772900
	 D(3,1,2,4)       =         2.257898	     129.368000

	Current energy   :      -151.5325378359

	Generating empirical Hessian (Schlegel '84) for each fragment.
	Taking RFO optimization step.
	Going to follow RFO solution 1.
	Using RFO vector 1.
	Norm of target step-size    0.14901
	Projected energy change by RFO approximation:        -0.0025309007

	Back-transformation to cartesian coordinates...
	Successfully converged to displaced geometry.

	--- Internal Coordinate Step in ANG or DEG, aJ/ANG or AJ/DEG ---
	 ---------------------------------------------------------------------------
	   Coordinate                Previous        Force       Change         New 
	   ----------                --------       ------       ------       ------
	    1 R(1,2)          =      1.454052     0.078103     0.013227     1.467279
	    2 R(1,3)          =      0.976073    -0.022864    -0.002805     0.973268
	    3 R(2,4)          =      0.976073    -0.022864    -0.002805     0.973268
	    4 B(1,2,4)        =     96.772800     0.000912     4.106955   100.879755
	    5 B(2,1,3)        =     96.772900     0.000912     4.106827   100.879727
	    6 D(3,1,2,4)      =    129.368000    -0.000008    -5.893576   123.474424
	 ---------------------------------------------------------------------------
	Successfully symmetrized geometry.

  ==> Convergence Check <==

  Measures of convergence in internal coordinates in au.
  Criteria marked as inactive (o), active & met (*), and active & unmet ( ).
  --------------------------------------------------------------------------------------------- ~
   Step     Total Energy     Delta E     MAX Force     RMS Force      MAX Disp      RMS Disp    ~
  --------------------------------------------------------------------------------------------- ~
    Convergence Criteria    1.00e-06 *    3.00e-04 *             o    1.20e-03 *             o  ~
  --------------------------------------------------------------------------------------------- ~
      1    -151.53253784   -1.52e+02      1.20e-02      8.09e-03 o    1.03e-01      5.99e-02 o  ~
  ---------------------------------------------------------------------------------------------

	Writing optimization data to binary file.
	Structure for next step:
	Cartesian Geometry (in Angstrom)
	    O     0.0539693765   0.0120778004  -0.7328517057
	    O     0.0248950226  -0.0493837418   0.7328509035
	    H     0.0080875520   0.9734659927  -0.8773477963
	    H    -0.7474450742  -0.6237208723   0.8773471074
			--------------------------
			 OPTKING Finished Execution 
			--------------------------

    Structure for next step:
    Molecular point group: c1
    Full point group: C1

    Geometry (in Angstrom), charge = 0, multiplicity = 1:

    O       
    O             1          R1
    H             1          R2      2          A2
    H             2          R3      1          A3      3          D3

    A2        =  100.8797266604
    A3        =  100.8797546316
    D3        =  123.4744241590
    R1        =    1.4672787721
    R2        =    0.9732684757
    R3        =    0.9732684753

gradient() will perform analytic gradient computation.

*** tstart() called on Ewan
*** at Mon Sep  9 15:59:36 2019

   => Loading Basis Set <=

    Name: 6-31G*
    Role: ORBITAL
    Keyword: BASIS
    atoms 1-2 entry O          line   145 file /home/snelliott/miniconda/envs/pacc-env-mini/share/psi4/basis/6-31gs.gbs 
    atoms 3-4 entry H          line    44 file /home/snelliott/miniconda/envs/pacc-env-mini/share/psi4/basis/6-31gs.gbs 


         ---------------------------------------------------------
                                   SCF
               by Justin Turney, Rob Parrish, Andy Simmonett
                          and Daniel G. A. Smith
                              RKS Reference
                        1 Threads,    953 MiB Core
         ---------------------------------------------------------

  ==> Geometry <==

    Molecular point group: c1
    Full point group: C1

    Geometry (in Angstrom), charge = 0, multiplicity = 1:

       Center              X                  Y                   Z               Mass       
    ------------   -----------------  -----------------  -----------------  -----------------
         O            0.023627974306    -0.012702568138    -0.733639399870    15.994914619570
         O            0.023627974306    -0.012702568138     0.733639372217    15.994914619570
         H            0.023627974306     0.943071951797    -0.917341856994     1.007825032230
         H           -0.773614171463    -0.539874003092     0.917342295868     1.007825032230

  Running in c1 symmetry.

  Rotational constants: A =     10.03820  B =      0.86717  C =      0.82869 [cm^-1]
  Rotational constants: A = 300937.81301  B =  25997.05807  C =  24843.58197 [MHz]
  Nuclear repulsion =   36.431916550596590

  Charge       = 0
  Multiplicity = 1
  Electrons    = 18
  Nalpha       = 9
  Nbeta        = 9

  ==> Algorithm <==

  SCF Algorithm Type is PK.
  DIIS enabled.
  MOM disabled.
  Fractional occupation disabled.
  Guess Type is READ.
  Energy threshold   = 1.00e-08
  Density threshold  = 1.00e-08
  Integral threshold = 0.00e+00

  ==> Primary Basis <==

  Basis Set: 6-31G*
    Blend: 6-31G*
    Number of shells: 16
    Number of basis function: 34
    Number of Cartesian functions: 34
    Spherical Harmonics?: false
    Max angular momentum: 2

  ==> DFT Potential <==

   => Composite Functional: B3LYP <= 

    B3LYP Hyb-GGA Exchange-Correlation Functional

    P. J. Stephens, F. J. Devlin, C. F. Chabalowski, and M. J. Frisch, J. Phys. Chem. 98, 11623 (1994)

    Deriv               =              1
    GGA                 =           TRUE
    Meta                =          FALSE

    Exchange Hybrid     =           TRUE
    MP2 Hybrid          =          FALSE

   => Exchange Functionals <=

    0.0800   Slater exchange
    0.7200         Becke 88

   => Exact (HF) Exchange <=

    0.2000               HF 

   => Correlation Functionals <=

    0.1900   Vosko, Wilk & Nusair (VWN5_RPA)
    0.8100   Lee, Yang & Parr

   => Molecular Quadrature <=

    Radial Scheme          =       TREUTLER
    Pruning Scheme         =           FLAT
    Nuclear Scheme         =       TREUTLER

    BS radius alpha        =              1
    Pruning alpha          =              1
    Radial Points          =             75
    Spherical Points       =            302
    Total Points           =          87144
    Total Blocks           =            711
    Max Points             =            255
    Max Functions          =             34

   => Loading Basis Set <=

    Name: 6-31G*
    Role: ORBITAL
    Keyword: BASIS
    atoms 1-2 entry O          line   145 file /home/snelliott/miniconda/envs/pacc-env-mini/share/psi4/basis/6-31gs.gbs 
    atoms 3-4 entry H          line    44 file /home/snelliott/miniconda/envs/pacc-env-mini/share/psi4/basis/6-31gs.gbs 

  Reading orbitals from file 180, no projection.

  ==> Pre-Iterations <==

   -------------------------------------------------------
    Irrep   Nso     Nmo     Nalpha   Nbeta   Ndocc  Nsocc
   -------------------------------------------------------
     A         34      34       0       0       0       0
   -------------------------------------------------------
    Total      34      34       9       9       9       0
   -------------------------------------------------------

  ==> Integral Setup <==

  Using in-core PK algorithm.
   Calculation information:
      Number of atoms:                   4
      Number of AO shells:              16
      Number of primitives:             38
      Number of atomic orbitals:        34
      Number of basis functions:        34

      Integral cutoff                 1.00e-12
      Number of threads:                 1

  Performing in-core PK
  Using 354620 doubles for integral storage.
  We computed 9304 shell quartets total.
  Whereas there are 9316 unique shell quartets.

  ==> DiskJK: Disk-Based J/K Matrices <==

    J tasked:                  Yes
    K tasked:                  Yes
    wK tasked:                  No
    Memory [MiB]:              633
    Schwarz Cutoff:          1E-12

    OpenMP threads:              1

  Cached 100.0% of DFT collocation blocks in 0.080 [GiB].

  Minimum eigenvalue in the overlap matrix is 1.1661884332E-02.
  Using Symmetric Orthogonalization.

  SCF Guess: Orbitals guess was supplied from a previous computation.

  ==> Iterations <==

                        Total Energy        Delta E     RMS |[F,P]|

   @RKS iter   0:  -151.53007935096272   -1.51530e+02   1.66304e-03 
   @RKS iter   1:  -151.53286631203821   -2.78696e-03   2.69745e-04 DIIS
   @RKS iter   2:  -151.53289785941558   -3.15474e-05   1.70919e-04 DIIS
   @RKS iter   3:  -151.53290453978221   -6.68037e-06   1.21089e-04 DIIS
   @RKS iter   4:  -151.53291029947238   -5.75969e-06   3.52349e-05 DIIS
   @RKS iter   5:  -151.53291080519531   -5.05723e-07   8.00854e-06 DIIS
   @RKS iter   6:  -151.53291083531357   -3.01183e-08   4.60226e-07 DIIS
   @RKS iter   7:  -151.53291083557855   -2.64976e-10   1.57243e-07 DIIS
   @RKS iter   8:  -151.53291083559571   -1.71667e-11   2.17337e-08 DIIS
   @RKS iter   9:  -151.53291083559628   -5.68434e-13   3.86357e-09 DIIS
  Energy and wave function converged.


  ==> Post-Iterations <==

    Orbital Energies [Eh]
    ---------------------

    Doubly Occupied:                                                      

       1A    -19.202921     2A    -19.202845     3A     -1.104416  
       4A     -0.896774     5A     -0.521723     6A     -0.487153  
       7A     -0.407034     8A     -0.322035     9A     -0.267179  

    Virtual:                                                              

      10A      0.016822    11A      0.070463    12A      0.115520  
      13A      0.775046    14A      0.781429    15A      0.810785  
      16A      0.839997    17A      0.924534    18A      0.957222  
      19A      0.984074    20A      1.045549    21A      1.183623  
      22A      1.314140    23A      1.516231    24A      1.520956  
      25A      1.702776    26A      1.787693    27A      1.947669  
      28A      2.283710    29A      2.325500    30A      2.456943  
      31A      2.460683    32A      2.947360    33A      3.427306  
      34A      3.656082  

    Final Occupation by Irrep:
              A 
    DOCC [     9 ]

  @RKS Final Energy:  -151.53291083559628

   => Energetics <=

    Nuclear Repulsion Energy =             36.4319165505965898
    One-Electron Energy =                -280.7437674249294446
    Two-Electron Energy =                 107.2090084453920724
    DFT Exchange-Correlation Energy =     -14.4300684066554989
    Empirical Dispersion Energy =           0.0000000000000000
    VV10 Nonlocal Energy =                  0.0000000000000000
    Total Energy =                       -151.5329108355962831

Computation Completed


Properties will be evaluated at   0.000000,   0.000000,   0.000000 [a0]

Properties computed using the SCF density matrix

  Nuclear Dipole Moment: [e a0]
     X:    -0.7029      Y:     0.3779      Z:     0.0000

  Electronic Dipole Moment: [e a0]
     X:     0.1290      Y:    -0.0693      Z:    -0.0000

  Dipole Moment: [e a0]
     X:    -0.5739      Y:     0.3085      Z:     0.0000     Total:     0.6516

  Dipole Moment: [D]
     X:    -1.4587      Y:     0.7842      Z:     0.0000     Total:     1.6562


*** tstop() called on Ewan at Mon Sep  9 15:59:38 2019
Module time:
	user time   =       1.74 seconds =       0.03 minutes
	system time =       0.05 seconds =       0.00 minutes
	total time  =          2 seconds =       0.03 minutes
Total time:
	user time   =       4.28 seconds =       0.07 minutes
	system time =       0.09 seconds =       0.00 minutes
	total time  =          4 seconds =       0.07 minutes

*** tstart() called on Ewan
*** at Mon Sep  9 15:59:38 2019


         ------------------------------------------------------------
                                   SCF GRAD                          
                          Rob Parrish, Justin Turney,                
                       Andy Simmonett, and Alex Sokolov              
         ------------------------------------------------------------

  ==> Geometry <==

    Molecular point group: c1
    Full point group: C1

    Geometry (in Angstrom), charge = 0, multiplicity = 1:

       Center              X                  Y                   Z               Mass       
    ------------   -----------------  -----------------  -----------------  -----------------
         O            0.023627974306    -0.012702568138    -0.733639399870    15.994914619570
         O            0.023627974306    -0.012702568138     0.733639372217    15.994914619570
         H            0.023627974306     0.943071951797    -0.917341856994     1.007825032230
         H           -0.773614171463    -0.539874003092     0.917342295868     1.007825032230

  Nuclear repulsion =   36.431916550596590

  ==> Basis Set <==

  Basis Set: 6-31G*
    Blend: 6-31G*
    Number of shells: 16
    Number of basis function: 34
    Number of Cartesian functions: 34
    Spherical Harmonics?: false
    Max angular momentum: 2

  ==> DirectJKGrad: Integral-Direct SCF Gradients <==

    Gradient:                    1
    J tasked:                  Yes
    K tasked:                  Yes
    wK tasked:                  No
    Integrals threads:           1
    Schwarz Cutoff:          0E+00

  ==> DFT Potential <==

   => Composite Functional: B3LYP <= 

    B3LYP Hyb-GGA Exchange-Correlation Functional

    P. J. Stephens, F. J. Devlin, C. F. Chabalowski, and M. J. Frisch, J. Phys. Chem. 98, 11623 (1994)

    Deriv               =              1
    GGA                 =           TRUE
    Meta                =          FALSE

    Exchange Hybrid     =           TRUE
    MP2 Hybrid          =          FALSE

   => Exchange Functionals <=

    0.0800   Slater exchange
    0.7200         Becke 88

   => Exact (HF) Exchange <=

    0.2000               HF 

   => Correlation Functionals <=

    0.1900   Vosko, Wilk & Nusair (VWN5_RPA)
    0.8100   Lee, Yang & Parr

   => Molecular Quadrature <=

    Radial Scheme          =       TREUTLER
    Pruning Scheme         =           FLAT
    Nuclear Scheme         =       TREUTLER

    BS radius alpha        =              1
    Pruning alpha          =              1
    Radial Points          =             75
    Spherical Points       =            302
    Total Points           =          87144
    Total Blocks           =            711
    Max Points             =            255
    Max Functions          =             34


  -Total Gradient:
     Atom            X                  Y                   Z
    ------   -----------------  -----------------  -----------------
       1        0.001723422963     0.005314550986    -0.005304753919
       2       -0.003482498911    -0.004368874582     0.005304704277
       3        0.000520280092    -0.001133815916    -0.003963451325
       4        0.001232734143     0.000191398273     0.003963501002


*** tstop() called on Ewan at Mon Sep  9 15:59:38 2019
Module time:
	user time   =       0.43 seconds =       0.01 minutes
	system time =       0.00 seconds =       0.00 minutes
	total time  =          0 seconds =       0.00 minutes
Total time:
	user time   =       4.71 seconds =       0.08 minutes
	system time =       0.09 seconds =       0.00 minutes
	total time  =          4 seconds =       0.07 minutes

			-----------------------------------------
			 OPTKING 2.0: for geometry optimizations 
			  - R.A. King,  Bethel University        
			-----------------------------------------

	Previous internal coordinate definitions found.
	---Fragment 1 Geometry and Gradient---
	 O           0.0446504003       -0.0240043749       -1.3863775406
	 O           0.0446504003       -0.0240043749        1.3863774883
	 H           0.0446504003        1.7821477055       -1.7335248731
	 H          -1.4619189108       -1.0202140081        1.7335257025
	             0.0017234230        0.0053145510       -0.0053047539
	            -0.0034824989       -0.0043688746        0.0053047043
	             0.0005202801       -0.0011338159       -0.0039634513
	             0.0012327341        0.0001913983        0.0039635010

	---Fragment 1 Intrafragment Coordinates---
	 - Coordinate -           - BOHR/RAD -       - ANG/DEG -
	 R(1,2)           =         2.772755	       1.467279
	 R(1,3)           =         1.839211	       0.973268
	 R(2,4)           =         1.839211	       0.973268
	 B(1,2,4)         =         1.760684	     100.879755
	 B(2,1,3)         =         1.760683	     100.879727
	 D(3,1,2,4)       =         2.155035	     123.474424

	Current energy   :      -151.5329108356

	Energy change for the previous step:
		Projected    :        -0.0025309007
		Actual       :        -0.0003729997
	Energy ratio indicates iffy step: Trust radius decreased to 1.250e-01.


	Performing BFGS update.
	Previous computed or guess Hessian on step 1.
	Steps to be used in Hessian update: 1
	Taking RFO optimization step.
	Going to follow RFO solution 1.
	Using RFO vector 1.

	Determining step-restricting scale parameter for RS-RFO.
	Maximum step size allowed    0.12500

	 Iter      |step|        alpha        rfo_root  
	------------------------------------------------
	    0     0.23196       1.00000           1
	    1     0.16270       3.11566           1
	    2     0.13314       4.87042           1
	    3     0.12557       5.48536           1
	    4     0.12500       5.53466           1
	------------------------------------------------
	Norm of target step-size    0.12500
	Projected energy change by RFO approximation:         0.0005747635

	Back-transformation to cartesian coordinates...
	Successfully converged to displaced geometry.

	--- Internal Coordinate Step in ANG or DEG, aJ/ANG or AJ/DEG ---
	 ---------------------------------------------------------------------------
	   Coordinate                Previous        Force       Change         New 
	   ----------                --------       ------       ------       ------
	    1 R(1,2)          =      1.467279    -0.076379    -0.007277     1.460002
	    2 R(1,3)          =      0.973268     0.003032     0.000090     0.973358
	    3 R(2,4)          =      0.973268     0.003032     0.000090     0.973358
	    4 B(1,2,4)        =    100.879755    -0.000575    -1.470261    99.409494
	    5 B(2,1,3)        =    100.879727    -0.000575    -1.470244    99.409482
	    6 D(3,1,2,4)      =    123.474424    -0.000016    -6.850761   116.623663
	 ---------------------------------------------------------------------------
	Successfully symmetrized geometry.

  ==> Convergence Check <==

  Measures of convergence in internal coordinates in au.
  Criteria marked as inactive (o), active & met (*), and active & unmet ( ).
  ---------------------------------------------------------------------------------------------
   Step     Total Energy     Delta E     MAX Force     RMS Force      MAX Disp      RMS Disp   
  ---------------------------------------------------------------------------------------------
    Convergence Criteria    1.00e-06 *    3.00e-04 *             o    1.20e-03 *             o
  ---------------------------------------------------------------------------------------------
      2    -151.53291084   -3.73e-04      9.27e-03      5.79e-03 o    1.20e-01      5.13e-02 o  ~
  ---------------------------------------------------------------------------------------------

	Writing optimization data to binary file.
	Structure for next step:
	Cartesian Geometry (in Angstrom)
	    O     0.0462730397  -0.0253271721  -0.7300008483
	    O     0.0466488562  -0.0246282975   0.7300009262
	    H    -0.0111421968   0.9331427936  -0.8895784825
	    H    -0.7845099449  -0.5053945131   0.8895788158
			--------------------------
			 OPTKING Finished Execution 
			--------------------------

    Structure for next step:
    Molecular point group: c1
    Full point group: C1

    Geometry (in Angstrom), charge = 0, multiplicity = 1:

    O       
    O             1          R1
    H             1          R2      2          A2
    H             2          R3      1          A3      3          D3

    A2        =   99.4094822705
    A3        =   99.4094939883
    D3        =  116.6236626705
    R1        =    1.4600019959
    R2        =    0.9733582143
    R3        =    0.9733582161

gradient() will perform analytic gradient computation.

*** tstart() called on Ewan
*** at Mon Sep  9 15:59:38 2019

   => Loading Basis Set <=

    Name: 6-31G*
    Role: ORBITAL
    Keyword: BASIS
    atoms 1-2 entry O          line   145 file /home/snelliott/miniconda/envs/pacc-env-mini/share/psi4/basis/6-31gs.gbs 
    atoms 3-4 entry H          line    44 file /home/snelliott/miniconda/envs/pacc-env-mini/share/psi4/basis/6-31gs.gbs 


         ---------------------------------------------------------
                                   SCF
               by Justin Turney, Rob Parrish, Andy Simmonett
                          and Daniel G. A. Smith
                              RKS Reference
                        1 Threads,    953 MiB Core
         ---------------------------------------------------------

  ==> Geometry <==

    Molecular point group: c1
    Full point group: C1

    Geometry (in Angstrom), charge = 0, multiplicity = 1:

       Center              X                  Y                   Z               Mass       
    ------------   -----------------  -----------------  -----------------  -----------------
         O            0.025441836212    -0.015705942535    -0.730001003778    15.994914619570
         O            0.025441836212    -0.015705942535     0.730000992120    15.994914619570
         H            0.025441836212     0.944555851970    -0.889134593201     1.007825032230
         H           -0.833002642837    -0.446026440935     0.889134778227     1.007825032230

  Running in c1 symmetry.

  Rotational constants: A =      9.88648  B =      0.87588  C =      0.84344 [cm^-1]
  Rotational constants: A = 296389.11392  B =  26258.22748  C =  25285.77575 [MHz]
  Nuclear repulsion =   36.612187568480607

  Charge       = 0
  Multiplicity = 1
  Electrons    = 18
  Nalpha       = 9
  Nbeta        = 9

  ==> Algorithm <==

  SCF Algorithm Type is PK.
  DIIS enabled.
  MOM disabled.
  Fractional occupation disabled.
  Guess Type is READ.
  Energy threshold   = 1.00e-08
  Density threshold  = 1.00e-08
  Integral threshold = 0.00e+00

  ==> Primary Basis <==

  Basis Set: 6-31G*
    Blend: 6-31G*
    Number of shells: 16
    Number of basis function: 34
    Number of Cartesian functions: 34
    Spherical Harmonics?: false
    Max angular momentum: 2

  ==> DFT Potential <==

   => Composite Functional: B3LYP <= 

    B3LYP Hyb-GGA Exchange-Correlation Functional

    P. J. Stephens, F. J. Devlin, C. F. Chabalowski, and M. J. Frisch, J. Phys. Chem. 98, 11623 (1994)

    Deriv               =              1
    GGA                 =           TRUE
    Meta                =          FALSE

    Exchange Hybrid     =           TRUE
    MP2 Hybrid          =          FALSE

   => Exchange Functionals <=

    0.0800   Slater exchange
    0.7200         Becke 88

   => Exact (HF) Exchange <=

    0.2000               HF 

   => Correlation Functionals <=

    0.1900   Vosko, Wilk & Nusair (VWN5_RPA)
    0.8100   Lee, Yang & Parr

   => Molecular Quadrature <=

    Radial Scheme          =       TREUTLER
    Pruning Scheme         =           FLAT
    Nuclear Scheme         =       TREUTLER

    BS radius alpha        =              1
    Pruning alpha          =              1
    Radial Points          =             75
    Spherical Points       =            302
    Total Points           =          87138
    Total Blocks           =            712
    Max Points             =            256
    Max Functions          =             34

   => Loading Basis Set <=

    Name: 6-31G*
    Role: ORBITAL
    Keyword: BASIS
    atoms 1-2 entry O          line   145 file /home/snelliott/miniconda/envs/pacc-env-mini/share/psi4/basis/6-31gs.gbs 
    atoms 3-4 entry H          line    44 file /home/snelliott/miniconda/envs/pacc-env-mini/share/psi4/basis/6-31gs.gbs 

  Reading orbitals from file 180, no projection.

  ==> Pre-Iterations <==

   -------------------------------------------------------
    Irrep   Nso     Nmo     Nalpha   Nbeta   Ndocc  Nsocc
   -------------------------------------------------------
     A         34      34       0       0       0       0
   -------------------------------------------------------
    Total      34      34       9       9       9       0
   -------------------------------------------------------

  ==> Integral Setup <==

  Using in-core PK algorithm.
   Calculation information:
      Number of atoms:                   4
      Number of AO shells:              16
      Number of primitives:             38
      Number of atomic orbitals:        34
      Number of basis functions:        34

      Integral cutoff                 1.00e-12
      Number of threads:                 1

  Performing in-core PK
  Using 354620 doubles for integral storage.
  We computed 9304 shell quartets total.
  Whereas there are 9316 unique shell quartets.

  ==> DiskJK: Disk-Based J/K Matrices <==

    J tasked:                  Yes
    K tasked:                  Yes
    wK tasked:                  No
    Memory [MiB]:              633
    Schwarz Cutoff:          1E-12

    OpenMP threads:              1

  Cached 100.0% of DFT collocation blocks in 0.080 [GiB].

  Minimum eigenvalue in the overlap matrix is 1.1404234055E-02.
  Using Symmetric Orthogonalization.

  SCF Guess: Orbitals guess was supplied from a previous computation.

  ==> Iterations <==

                        Total Energy        Delta E     RMS |[F,P]|

   @RKS iter   0:  -151.53333725826585   -1.51533e+02   1.41589e-03 
   @RKS iter   1:  -151.53316086809198    1.76390e-04   2.11640e-04 DIIS
   @RKS iter   2:  -151.53318408414393   -2.32161e-05   1.55985e-04 DIIS
   @RKS iter   3:  -151.53318858451962   -4.50038e-06   1.20578e-04 DIIS
   @RKS iter   4:  -151.53319455278742   -5.96827e-06   2.31878e-05 DIIS
   @RKS iter   5:  -151.53319477297418   -2.20187e-07   5.78175e-06 DIIS
   @RKS iter   6:  -151.53319478888918   -1.59150e-08   5.15982e-07 DIIS
   @RKS iter   7:  -151.53319478912539   -2.36213e-10   1.14130e-07 DIIS
   @RKS iter   8:  -151.53319478913448   -9.09495e-12   1.38480e-08 DIIS
   @RKS iter   9:  -151.53319478913477   -2.84217e-13   3.10908e-09 DIIS
  Energy and wave function converged.


  ==> Post-Iterations <==

    Orbital Energies [Eh]
    ---------------------

    Doubly Occupied:                                                      

       1A    -19.203189     2A    -19.203112     3A     -1.109539  
       4A     -0.894732     5A     -0.522443     6A     -0.487907  
       7A     -0.412200     8A     -0.316830     9A     -0.271492  

    Virtual:                                                              

      10A      0.022253    11A      0.068701    12A      0.115337  
      13A      0.777907    14A      0.779963    15A      0.812775  
      16A      0.838008    17A      0.922350    18A      0.955502  
      19A      0.983947    20A      1.044201    21A      1.189288  
      22A      1.318218    23A      1.508781    24A      1.514836  
      25A      1.681803    26A      1.805227    27A      1.960333  
      28A      2.287992    29A      2.322600    30A      2.461819  
      31A      2.479850    32A      2.946150    33A      3.429213  
      34A      3.650748  

    Final Occupation by Irrep:
              A 
    DOCC [     9 ]

  @RKS Final Energy:  -151.53319478913477

   => Energetics <=

    Nuclear Repulsion Energy =             36.6121875684806071
    One-Electron Energy =                -281.0839441651306174
    Two-Electron Energy =                 107.3720028935445612
    DFT Exchange-Correlation Energy =     -14.4334410860293190
    Empirical Dispersion Energy =           0.0000000000000000
    VV10 Nonlocal Energy =                  0.0000000000000000
    Total Energy =                       -151.5331947891347681

Computation Completed


Properties will be evaluated at   0.000000,   0.000000,   0.000000 [a0]

Properties computed using the SCF density matrix

  Nuclear Dipole Moment: [e a0]
     X:    -0.7568      Y:     0.4672      Z:     0.0000

  Electronic Dipole Moment: [e a0]
     X:     0.1434      Y:    -0.0885      Z:    -0.0000

  Dipole Moment: [e a0]
     X:    -0.6134      Y:     0.3787      Z:     0.0000     Total:     0.7209

  Dipole Moment: [D]
     X:    -1.5591      Y:     0.9625      Z:     0.0000     Total:     1.8323


*** tstop() called on Ewan at Mon Sep  9 15:59:40 2019
Module time:
	user time   =       1.74 seconds =       0.03 minutes
	system time =       0.01 seconds =       0.00 minutes
	total time  =          2 seconds =       0.03 minutes
Total time:
	user time   =       6.46 seconds =       0.11 minutes
	system time =       0.10 seconds =       0.00 minutes
	total time  =          6 seconds =       0.10 minutes

*** tstart() called on Ewan
*** at Mon Sep  9 15:59:40 2019


         ------------------------------------------------------------
                                   SCF GRAD                          
                          Rob Parrish, Justin Turney,                
                       Andy Simmonett, and Alex Sokolov              
         ------------------------------------------------------------

  ==> Geometry <==

    Molecular point group: c1
    Full point group: C1

    Geometry (in Angstrom), charge = 0, multiplicity = 1:

       Center              X                  Y                   Z               Mass       
    ------------   -----------------  -----------------  -----------------  -----------------
         O            0.025441836212    -0.015705942535    -0.730001003778    15.994914619570
         O            0.025441836212    -0.015705942535     0.730000992120    15.994914619570
         H            0.025441836212     0.944555851970    -0.889134593201     1.007825032230
         H           -0.833002642837    -0.446026440935     0.889134778227     1.007825032230

  Nuclear repulsion =   36.612187568480607

  ==> Basis Set <==

  Basis Set: 6-31G*
    Blend: 6-31G*
    Number of shells: 16
    Number of basis function: 34
    Number of Cartesian functions: 34
    Spherical Harmonics?: false
    Max angular momentum: 2

  ==> DirectJKGrad: Integral-Direct SCF Gradients <==

    Gradient:                    1
    J tasked:                  Yes
    K tasked:                  Yes
    wK tasked:                  No
    Integrals threads:           1
    Schwarz Cutoff:          0E+00

  ==> DFT Potential <==

   => Composite Functional: B3LYP <= 

    B3LYP Hyb-GGA Exchange-Correlation Functional

    P. J. Stephens, F. J. Devlin, C. F. Chabalowski, and M. J. Frisch, J. Phys. Chem. 98, 11623 (1994)

    Deriv               =              1
    GGA                 =           TRUE
    Meta                =          FALSE

    Exchange Hybrid     =           TRUE
    MP2 Hybrid          =          FALSE

   => Exchange Functionals <=

    0.0800   Slater exchange
    0.7200         Becke 88

   => Exact (HF) Exchange <=

    0.2000               HF 

   => Correlation Functionals <=

    0.1900   Vosko, Wilk & Nusair (VWN5_RPA)
    0.8100   Lee, Yang & Parr

   => Molecular Quadrature <=

    Radial Scheme          =       TREUTLER
    Pruning Scheme         =           FLAT
    Nuclear Scheme         =       TREUTLER

    BS radius alpha        =              1
    Pruning alpha          =              1
    Radial Points          =             75
    Spherical Points       =            302
    Total Points           =          87138
    Total Blocks           =            712
    Max Points             =            256
    Max Functions          =             34


  -Total Gradient:
     Atom            X                  Y                   Z
    ------   -----------------  -----------------  -----------------
       1       -0.000076296410    -0.000213662087    -0.002461925744
       2        0.000156799898     0.000163961035     0.002461903331
       3       -0.000218346394    -0.000257810667     0.000556258408
       4        0.000132631906     0.000310728546    -0.000556236019


*** tstop() called on Ewan at Mon Sep  9 15:59:40 2019
Module time:
	user time   =       0.41 seconds =       0.01 minutes
	system time =       0.00 seconds =       0.00 minutes
	total time  =          0 seconds =       0.00 minutes
Total time:
	user time   =       6.88 seconds =       0.11 minutes
	system time =       0.10 seconds =       0.00 minutes
	total time  =          6 seconds =       0.10 minutes

			-----------------------------------------
			 OPTKING 2.0: for geometry optimizations 
			  - R.A. King,  Bethel University        
			-----------------------------------------

	Previous internal coordinate definitions found.
	---Fragment 1 Geometry and Gradient---
	 O           0.0480781026       -0.0296799299       -1.3795019685
	 O           0.0480781026       -0.0296799299        1.3795019464
	 H           0.0480781026        1.7849518704       -1.6802208698
	 H          -1.5741468567       -0.8428678181        1.6802212195
	            -0.0000762964       -0.0002136621       -0.0024619257
	             0.0001567999        0.0001639610        0.0024619033
	            -0.0002183464       -0.0002578107        0.0005562584
	             0.0001326319        0.0003107285       -0.0005562360

	---Fragment 1 Intrafragment Coordinates---
	 - Coordinate -           - BOHR/RAD -       - ANG/DEG -
	 R(1,2)           =         2.759004	       1.460002
	 R(1,3)           =         1.839380	       0.973358
	 R(2,4)           =         1.839380	       0.973358
	 B(1,2,4)         =         1.735023	      99.409494
	 B(2,1,3)         =         1.735023	      99.409482
	 D(3,1,2,4)       =         2.035467	     116.623663

	Current energy   :      -151.5331947891

	Energy change for the previous step:
		Projected    :         0.0005747635
		Actual       :        -0.0002839535

	Performing BFGS update.
	Previous computed or guess Hessian on step 1.
	Steps to be used in Hessian update: 2 1
	Taking RFO optimization step.
	Going to follow RFO solution 1.
	Using RFO vector 1.
	Norm of target step-size    0.07772
	Projected energy change by RFO approximation:        -0.0003514523

	Back-transformation to cartesian coordinates...
	Successfully converged to displaced geometry.

	--- Internal Coordinate Step in ANG or DEG, aJ/ANG or AJ/DEG ---
	 ---------------------------------------------------------------------------
	   Coordinate                Previous        Force       Change         New 
	   ----------                --------       ------       ------       ------
	    1 R(1,2)          =      1.460002    -0.015685    -0.003117     1.456885
	    2 R(1,3)          =      0.973358     0.002840     0.000055     0.973413
	    3 R(2,4)          =      0.973358     0.002840     0.000055     0.973413
	    4 B(1,2,4)        =     99.409494     0.000071     0.230154    99.639648
	    5 B(2,1,3)        =     99.409482     0.000071     0.230159    99.639641
	    6 D(3,1,2,4)      =    116.623663     0.000007     4.422835   121.046498
	 ---------------------------------------------------------------------------
	Successfully symmetrized geometry.

  ==> Convergence Check <==

  Measures of convergence in internal coordinates in au.
  Criteria marked as inactive (o), active & met (*), and active & unmet ( ).
  ---------------------------------------------------------------------------------------------
   Step     Total Energy     Delta E     MAX Force     RMS Force      MAX Disp      RMS Disp   
  ---------------------------------------------------------------------------------------------
    Convergence Criteria    1.00e-06 *    3.00e-04 *             o    1.20e-03 *             o
  ---------------------------------------------------------------------------------------------
      3    -151.53319479   -2.84e-04      1.90e-03      9.80e-04 o    7.72e-02      3.17e-02 o  ~
  ---------------------------------------------------------------------------------------------

	Writing optimization data to binary file.
	Structure for next step:
	Cartesian Geometry (in Angstrom)
	    O     0.0089952073  -0.0117010160  -0.7284238970
	    O     0.0144913720  -0.0027978927   0.7284239202
	    H     0.0453996567   0.9462386714  -0.8974184948
	    H    -0.8255633672  -0.4646222386   0.8974186450
			--------------------------
			 OPTKING Finished Execution 
			--------------------------

    Structure for next step:
    Molecular point group: c1
    Full point group: C1

    Geometry (in Angstrom), charge = 0, multiplicity = 1:

    O       
    O             1          R1
    H             1          R2      2          A2
    H             2          R3      1          A3      3          D3

    A2        =   99.6396409424
    A3        =   99.6396477556
    D3        =  121.0464976774
    R1        =    1.4568853945
    R2        =    0.9734130213
    R3        =    0.9734130242

gradient() will perform analytic gradient computation.

*** tstart() called on Ewan
*** at Mon Sep  9 15:59:41 2019

   => Loading Basis Set <=

    Name: 6-31G*
    Role: ORBITAL
    Keyword: BASIS
    atoms 1-2 entry O          line   145 file /home/snelliott/miniconda/envs/pacc-env-mini/share/psi4/basis/6-31gs.gbs 
    atoms 3-4 entry H          line    44 file /home/snelliott/miniconda/envs/pacc-env-mini/share/psi4/basis/6-31gs.gbs 


         ---------------------------------------------------------
                                   SCF
               by Justin Turney, Rob Parrish, Andy Simmonett
                          and Daniel G. A. Smith
                              RKS Reference
                        1 Threads,    953 MiB Core
         ---------------------------------------------------------

  ==> Geometry <==

    Molecular point group: c1
    Full point group: C1

    Geometry (in Angstrom), charge = 0, multiplicity = 1:

       Center              X                  Y                   Z               Mass       
    ------------   -----------------  -----------------  -----------------  -----------------
         O            0.024367515737    -0.013773427981    -0.728442700629    15.994914619570
         O            0.024367515737    -0.013773427981     0.728442693836    15.994914619570
         H            0.024367515737     0.945895409959    -0.891441570435     1.007825032230
         H           -0.797827831247    -0.508706815637     0.891441678248     1.007825032230

  Running in c1 symmetry.

  Rotational constants: A =      9.91952  B =      0.88123  C =      0.84358 [cm^-1]
  Rotational constants: A = 297379.76430  B =  26418.69894  C =  25289.99661 [MHz]
  Nuclear repulsion =   36.657964076988897

  Charge       = 0
  Multiplicity = 1
  Electrons    = 18
  Nalpha       = 9
  Nbeta        = 9

  ==> Algorithm <==

  SCF Algorithm Type is PK.
  DIIS enabled.
  MOM disabled.
  Fractional occupation disabled.
  Guess Type is READ.
  Energy threshold   = 1.00e-08
  Density threshold  = 1.00e-08
  Integral threshold = 0.00e+00

  ==> Primary Basis <==

  Basis Set: 6-31G*
    Blend: 6-31G*
    Number of shells: 16
    Number of basis function: 34
    Number of Cartesian functions: 34
    Spherical Harmonics?: false
    Max angular momentum: 2

  ==> DFT Potential <==

   => Composite Functional: B3LYP <= 

    B3LYP Hyb-GGA Exchange-Correlation Functional

    P. J. Stephens, F. J. Devlin, C. F. Chabalowski, and M. J. Frisch, J. Phys. Chem. 98, 11623 (1994)

    Deriv               =              1
    GGA                 =           TRUE
    Meta                =          FALSE

    Exchange Hybrid     =           TRUE
    MP2 Hybrid          =          FALSE

   => Exchange Functionals <=

    0.0800   Slater exchange
    0.7200         Becke 88

   => Exact (HF) Exchange <=

    0.2000               HF 

   => Correlation Functionals <=

    0.1900   Vosko, Wilk & Nusair (VWN5_RPA)
    0.8100   Lee, Yang & Parr

   => Molecular Quadrature <=

    Radial Scheme          =       TREUTLER
    Pruning Scheme         =           FLAT
    Nuclear Scheme         =       TREUTLER

    BS radius alpha        =              1
    Pruning alpha          =              1
    Radial Points          =             75
    Spherical Points       =            302
    Total Points           =          87140
    Total Blocks           =            710
    Max Points             =            256
    Max Functions          =             34

   => Loading Basis Set <=

    Name: 6-31G*
    Role: ORBITAL
    Keyword: BASIS
    atoms 1-2 entry O          line   145 file /home/snelliott/miniconda/envs/pacc-env-mini/share/psi4/basis/6-31gs.gbs 
    atoms 3-4 entry H          line    44 file /home/snelliott/miniconda/envs/pacc-env-mini/share/psi4/basis/6-31gs.gbs 

  Reading orbitals from file 180, no projection.

  ==> Pre-Iterations <==

   -------------------------------------------------------
    Irrep   Nso     Nmo     Nalpha   Nbeta   Ndocc  Nsocc
   -------------------------------------------------------
     A         34      34       0       0       0       0
   -------------------------------------------------------
    Total      34      34       9       9       9       0
   -------------------------------------------------------

  ==> Integral Setup <==

  Using in-core PK algorithm.
   Calculation information:
      Number of atoms:                   4
      Number of AO shells:              16
      Number of primitives:             38
      Number of atomic orbitals:        34
      Number of basis functions:        34

      Integral cutoff                 1.00e-12
      Number of threads:                 1

  Performing in-core PK
  Using 354620 doubles for integral storage.
  We computed 9304 shell quartets total.
  Whereas there are 9316 unique shell quartets.

  ==> DiskJK: Disk-Based J/K Matrices <==

    J tasked:                  Yes
    K tasked:                  Yes
    wK tasked:                  No
    Memory [MiB]:              633
    Schwarz Cutoff:          1E-12

    OpenMP threads:              1

  Cached 100.0% of DFT collocation blocks in 0.080 [GiB].

  Minimum eigenvalue in the overlap matrix is 1.1334694898E-02.
  Using Symmetric Orthogonalization.

  SCF Guess: Orbitals guess was supplied from a previous computation.

  ==> Iterations <==

                        Total Energy        Delta E     RMS |[F,P]|

   @RKS iter   0:  -151.53344385554831   -1.51533e+02   8.77980e-04 
   @RKS iter   1:  -151.53319166984488    2.52186e-04   1.43174e-04 DIIS
   @RKS iter   2:  -151.53319866218001   -6.99234e-06   1.35201e-04 DIIS
   @RKS iter   3:  -151.53320427101059   -5.60883e-06   7.38156e-05 DIIS
   @RKS iter   4:  -151.53320646732047   -2.19631e-06   1.66510e-05 DIIS
   @RKS iter   5:  -151.53320658132196   -1.14001e-07   4.05496e-06 DIIS
   @RKS iter   6:  -151.53320658896413   -7.64217e-09   3.34898e-07 DIIS
   @RKS iter   7:  -151.53320658905264   -8.85052e-11   4.80413e-08 DIIS
   @RKS iter   8:  -151.53320658905440   -1.76215e-12   5.05833e-09 DIIS
  Energy and wave function converged.


  ==> Post-Iterations <==

    Orbital Energies [Eh]
    ---------------------

    Doubly Occupied:                                                      

       1A    -19.202642     2A    -19.202564     3A     -1.110099  
       4A     -0.894222     5A     -0.521514     6A     -0.489782  
       7A     -0.410770     8A     -0.320263     9A     -0.267665  

    Virtual:                                                              

      10A      0.024080    11A      0.069387    12A      0.115880  
      13A      0.777259    14A      0.780863    15A      0.811735  
      16A      0.839498    17A      0.921043    18A      0.956115  
      19A      0.983808    20A      1.045440    21A      1.186900  
      22A      1.318724    23A      1.511127    24A      1.513527  
      25A      1.693690    26A      1.794626    27A      1.964956  
      28A      2.289028    29A      2.330304    30A      2.468310  
      31A      2.472605    32A      2.945729    33A      3.430372  
      34A      3.652067  

    Final Occupation by Irrep:
              A 
    DOCC [     9 ]

  @RKS Final Energy:  -151.53320658905440

   => Energetics <=

    Nuclear Repulsion Energy =             36.6579640769888968
    One-Electron Energy =                -281.1786265432591563
    Two-Electron Energy =                 107.4220213853664347
    DFT Exchange-Correlation Energy =     -14.4345655081505697
    Empirical Dispersion Energy =           0.0000000000000000
    VV10 Nonlocal Energy =                  0.0000000000000000
    Total Energy =                       -151.5332065890544015

Computation Completed


Properties will be evaluated at   0.000000,   0.000000,   0.000000 [a0]

Properties computed using the SCF density matrix

  Nuclear Dipole Moment: [e a0]
     X:    -0.7249      Y:     0.4097      Z:     0.0000

  Electronic Dipole Moment: [e a0]
     X:     0.1358      Y:    -0.0768      Z:    -0.0000

  Dipole Moment: [e a0]
     X:    -0.5891      Y:     0.3330      Z:     0.0000     Total:     0.6766

  Dipole Moment: [D]
     X:    -1.4972      Y:     0.8463      Z:     0.0000     Total:     1.7199


*** tstop() called on Ewan at Mon Sep  9 15:59:42 2019
Module time:
	user time   =       1.63 seconds =       0.03 minutes
	system time =       0.04 seconds =       0.00 minutes
	total time  =          1 seconds =       0.02 minutes
Total time:
	user time   =       8.52 seconds =       0.14 minutes
	system time =       0.14 seconds =       0.00 minutes
	total time  =          8 seconds =       0.13 minutes

*** tstart() called on Ewan
*** at Mon Sep  9 15:59:42 2019


         ------------------------------------------------------------
                                   SCF GRAD                          
                          Rob Parrish, Justin Turney,                
                       Andy Simmonett, and Alex Sokolov              
         ------------------------------------------------------------

  ==> Geometry <==

    Molecular point group: c1
    Full point group: C1

    Geometry (in Angstrom), charge = 0, multiplicity = 1:

       Center              X                  Y                   Z               Mass       
    ------------   -----------------  -----------------  -----------------  -----------------
         O            0.024367515737    -0.013773427981    -0.728442700629    15.994914619570
         O            0.024367515737    -0.013773427981     0.728442693836    15.994914619570
         H            0.024367515737     0.945895409959    -0.891441570435     1.007825032230
         H           -0.797827831247    -0.508706815637     0.891441678248     1.007825032230

  Nuclear repulsion =   36.657964076988897

  ==> Basis Set <==

  Basis Set: 6-31G*
    Blend: 6-31G*
    Number of shells: 16
    Number of basis function: 34
    Number of Cartesian functions: 34
    Spherical Harmonics?: false
    Max angular momentum: 2

  ==> DirectJKGrad: Integral-Direct SCF Gradients <==

    Gradient:                    1
    J tasked:                  Yes
    K tasked:                  Yes
    wK tasked:                  No
    Integrals threads:           1
    Schwarz Cutoff:          0E+00

  ==> DFT Potential <==

   => Composite Functional: B3LYP <= 

    B3LYP Hyb-GGA Exchange-Correlation Functional

    P. J. Stephens, F. J. Devlin, C. F. Chabalowski, and M. J. Frisch, J. Phys. Chem. 98, 11623 (1994)

    Deriv               =              1
    GGA                 =           TRUE
    Meta                =          FALSE

    Exchange Hybrid     =           TRUE
    MP2 Hybrid          =          FALSE

   => Exchange Functionals <=

    0.0800   Slater exchange
    0.7200         Becke 88

   => Exact (HF) Exchange <=

    0.2000               HF 

   => Correlation Functionals <=

    0.1900   Vosko, Wilk & Nusair (VWN5_RPA)
    0.8100   Lee, Yang & Parr

   => Molecular Quadrature <=

    Radial Scheme          =       TREUTLER
    Pruning Scheme         =           FLAT
    Nuclear Scheme         =       TREUTLER

    BS radius alpha        =              1
    Pruning alpha          =              1
    Radial Points          =             75
    Spherical Points       =            302
    Total Points           =          87140
    Total Blocks           =            710
    Max Points             =            256
    Max Functions          =             34


  -Total Gradient:
     Atom            X                  Y                   Z
    ------   -----------------  -----------------  -----------------
       1       -0.000075711936     0.000347097471    -0.000271505357
       2       -0.000336429998    -0.000114140436     0.000271491847
       3        0.000170471647    -0.000163099198    -0.000167849889
       4        0.000227653535    -0.000061935073     0.000167863395


*** tstop() called on Ewan at Mon Sep  9 15:59:43 2019
Module time:
	user time   =       0.44 seconds =       0.01 minutes
	system time =       0.00 seconds =       0.00 minutes
	total time  =          1 seconds =       0.02 minutes
Total time:
	user time   =       8.96 seconds =       0.15 minutes
	system time =       0.14 seconds =       0.00 minutes
	total time  =          9 seconds =       0.15 minutes

			-----------------------------------------
			 OPTKING 2.0: for geometry optimizations 
			  - R.A. King,  Bethel University        
			-----------------------------------------

	Previous internal coordinate definitions found.
	---Fragment 1 Geometry and Gradient---
	 O           0.0460479311       -0.0260280067       -1.3765572023
	 O           0.0460479311       -0.0260280067        1.3765571894
	 H           0.0460479311        1.7874832682       -1.6845804250
	 H          -1.5076760963       -0.9613165597        1.6845806287
	            -0.0000757119        0.0003470975       -0.0002715054
	            -0.0003364300       -0.0001141404        0.0002714918
	             0.0001704716       -0.0001630992       -0.0001678499
	             0.0002276535       -0.0000619351        0.0001678634

	---Fragment 1 Intrafragment Coordinates---
	 - Coordinate -           - BOHR/RAD -       - ANG/DEG -
	 R(1,2)           =         2.753114	       1.456885
	 R(1,3)           =         1.839484	       0.973413
	 R(2,4)           =         1.839484	       0.973413
	 B(1,2,4)         =         1.739040	      99.639648
	 B(2,1,3)         =         1.739040	      99.639641
	 D(3,1,2,4)       =         2.112660	     121.046498

	Current energy   :      -151.5332065891

	Energy change for the previous step:
		Projected    :        -0.0003514523
		Actual       :        -0.0000117999
	Energy ratio indicates iffy step: Trust radius decreased to 3.125e-02.


	Performing BFGS update.
	Previous computed or guess Hessian on step 1.
	Steps to be used in Hessian update: 3 2
	Taking RFO optimization step.
	Going to follow RFO solution 1.
	Using RFO vector 1.

	Determining step-restricting scale parameter for RS-RFO.
	Maximum step size allowed    0.03125

	 Iter      |step|        alpha        rfo_root  
	------------------------------------------------
	    0     0.03962       1.00000           1
	    1     0.03353     122.88449           1
	    2     0.03149     184.06904           1
	    3     0.03125     192.09025           1
	------------------------------------------------
	Norm of target step-size    0.03125
	Projected energy change by RFO approximation:         0.0000118460

	Back-transformation to cartesian coordinates...
	Successfully converged to displaced geometry.

	--- Internal Coordinate Step in ANG or DEG, aJ/ANG or AJ/DEG ---
	 ---------------------------------------------------------------------------
	   Coordinate                Previous        Force       Change         New 
	   ----------                --------       ------       ------       ------
	    1 R(1,2)          =      1.456885    -0.003623    -0.000754     1.456132
	    2 R(1,3)          =      0.973413     0.001112     0.000178     0.973591
	    3 R(2,4)          =      0.973413     0.001112     0.000178     0.973591
	    4 B(1,2,4)        =     99.639648    -0.000027    -0.017786    99.621861
	    5 B(2,1,3)        =     99.639641    -0.000027    -0.017777    99.621864
	    6 D(3,1,2,4)      =    121.046498    -0.000006    -1.788551   119.257947
	 ---------------------------------------------------------------------------
	Successfully symmetrized geometry.

  ==> Convergence Check <==

  Measures of convergence in internal coordinates in au.
  Criteria marked as inactive (o), active & met (*), and active & unmet ( ).
  ---------------------------------------------------------------------------------------------
   Step     Total Energy     Delta E     MAX Force     RMS Force      MAX Disp      RMS Disp   
  ---------------------------------------------------------------------------------------------
    Convergence Criteria    1.00e-06 *    3.00e-04 *             o    1.20e-03 *             o
  ---------------------------------------------------------------------------------------------
      4    -151.53320659   -1.18e-05      4.40e-04      3.12e-04 o    3.12e-02      1.28e-02 o  ~
  ---------------------------------------------------------------------------------------------

	Writing optimization data to binary file.
	Structure for next step:
	Cartesian Geometry (in Angstrom)
	    O     0.0311246117  -0.0151258002  -0.7280626889
	    O     0.0290110582  -0.0188651219   0.7280627487
	    H     0.0163775857   0.9450667322  -0.8883498701
	    H    -0.8012385368  -0.5014340734   0.8883499113
			--------------------------
			 OPTKING Finished Execution 
			--------------------------

    Structure for next step:
    Molecular point group: c1
    Full point group: C1

    Geometry (in Angstrom), charge = 0, multiplicity = 1:

    O       
    O             1          R1
    H             1          R2      2          A2
    H             2          R3      1          A3      3          D3

    A2        =   99.6218642187
    A3        =   99.6218613391
    D3        =  119.2579466817
    R1        =    1.4561317784
    R2        =    0.9735908596
    R3        =    0.9735908611

gradient() will perform analytic gradient computation.

*** tstart() called on Ewan
*** at Mon Sep  9 15:59:43 2019

   => Loading Basis Set <=

    Name: 6-31G*
    Role: ORBITAL
    Keyword: BASIS
    atoms 1-2 entry O          line   145 file /home/snelliott/miniconda/envs/pacc-env-mini/share/psi4/basis/6-31gs.gbs 
    atoms 3-4 entry H          line    44 file /home/snelliott/miniconda/envs/pacc-env-mini/share/psi4/basis/6-31gs.gbs 


         ---------------------------------------------------------
                                   SCF
               by Justin Turney, Rob Parrish, Andy Simmonett
                          and Daniel G. A. Smith
                              RKS Reference
                        1 Threads,    953 MiB Core
         ---------------------------------------------------------

  ==> Geometry <==

    Molecular point group: c1
    Full point group: C1

    Geometry (in Angstrom), charge = 0, multiplicity = 1:

       Center              X                  Y                   Z               Mass       
    ------------   -----------------  -----------------  -----------------  -----------------
         O            0.024819301138    -0.014544531491    -0.728065887794    15.994914619570
         O            0.024819301138    -0.014544531491     0.728065890639    15.994914619570
         H            0.024819301138     0.945350169203    -0.890796725426     1.007825032230
         H           -0.812619940990    -0.483685630333     0.890796680271     1.007825032230

  Running in c1 symmetry.

  Rotational constants: A =      9.90882  B =      0.88117  C =      0.84546 [cm^-1]
  Rotational constants: A = 297058.92168  B =  26416.70436  C =  25346.15411 [MHz]
  Nuclear repulsion =   36.671199412476767

  Charge       = 0
  Multiplicity = 1
  Electrons    = 18
  Nalpha       = 9
  Nbeta        = 9

  ==> Algorithm <==

  SCF Algorithm Type is PK.
  DIIS enabled.
  MOM disabled.
  Fractional occupation disabled.
  Guess Type is READ.
  Energy threshold   = 1.00e-08
  Density threshold  = 1.00e-08
  Integral threshold = 0.00e+00

  ==> Primary Basis <==

  Basis Set: 6-31G*
    Blend: 6-31G*
    Number of shells: 16
    Number of basis function: 34
    Number of Cartesian functions: 34
    Spherical Harmonics?: false
    Max angular momentum: 2

  ==> DFT Potential <==

   => Composite Functional: B3LYP <= 

    B3LYP Hyb-GGA Exchange-Correlation Functional

    P. J. Stephens, F. J. Devlin, C. F. Chabalowski, and M. J. Frisch, J. Phys. Chem. 98, 11623 (1994)

    Deriv               =              1
    GGA                 =           TRUE
    Meta                =          FALSE

    Exchange Hybrid     =           TRUE
    MP2 Hybrid          =          FALSE

   => Exchange Functionals <=

    0.0800   Slater exchange
    0.7200         Becke 88

   => Exact (HF) Exchange <=

    0.2000               HF 

   => Correlation Functionals <=

    0.1900   Vosko, Wilk & Nusair (VWN5_RPA)
    0.8100   Lee, Yang & Parr

   => Molecular Quadrature <=

    Radial Scheme          =       TREUTLER
    Pruning Scheme         =           FLAT
    Nuclear Scheme         =       TREUTLER

    BS radius alpha        =              1
    Pruning alpha          =              1
    Radial Points          =             75
    Spherical Points       =            302
    Total Points           =          87140
    Total Blocks           =            707
    Max Points             =            256
    Max Functions          =             34

   => Loading Basis Set <=

    Name: 6-31G*
    Role: ORBITAL
    Keyword: BASIS
    atoms 1-2 entry O          line   145 file /home/snelliott/miniconda/envs/pacc-env-mini/share/psi4/basis/6-31gs.gbs 
    atoms 3-4 entry H          line    44 file /home/snelliott/miniconda/envs/pacc-env-mini/share/psi4/basis/6-31gs.gbs 

  Reading orbitals from file 180, no projection.

  ==> Pre-Iterations <==

   -------------------------------------------------------
    Irrep   Nso     Nmo     Nalpha   Nbeta   Ndocc  Nsocc
   -------------------------------------------------------
     A         34      34       0       0       0       0
   -------------------------------------------------------
    Total      34      34       9       9       9       0
   -------------------------------------------------------

  ==> Integral Setup <==

  Using in-core PK algorithm.
   Calculation information:
      Number of atoms:                   4
      Number of AO shells:              16
      Number of primitives:             38
      Number of atomic orbitals:        34
      Number of basis functions:        34

      Integral cutoff                 1.00e-12
      Number of threads:                 1

  Performing in-core PK
  Using 354620 doubles for integral storage.
  We computed 9304 shell quartets total.
  Whereas there are 9316 unique shell quartets.

  ==> DiskJK: Disk-Based J/K Matrices <==

    J tasked:                  Yes
    K tasked:                  Yes
    wK tasked:                  No
    Memory [MiB]:              633
    Schwarz Cutoff:          1E-12

    OpenMP threads:              1

  Cached 100.0% of DFT collocation blocks in 0.080 [GiB].

  Minimum eigenvalue in the overlap matrix is 1.1318100552E-02.
  Using Symmetric Orthogonalization.

  SCF Guess: Orbitals guess was supplied from a previous computation.

  ==> Iterations <==

                        Total Energy        Delta E     RMS |[F,P]|

   @RKS iter   0:  -151.53315577842940   -1.51533e+02   3.48525e-04 
   @RKS iter   1:  -151.53321126220388   -5.54838e-05   4.70924e-05 DIIS
   @RKS iter   2:  -151.53321308846523   -1.82626e-06   1.17388e-05 DIIS
   @RKS iter   3:  -151.53321314076200   -5.22968e-08   1.03911e-05 DIIS
   @RKS iter   4:  -151.53321318521688   -4.44549e-08   2.84241e-06 DIIS
   @RKS iter   5:  -151.53321318765870   -2.44182e-09   1.61678e-06 DIIS
   @RKS iter   6:  -151.53321318876215   -1.10344e-09   1.23603e-07 DIIS
   @RKS iter   7:  -151.53321318877204   -9.89075e-12   2.20945e-08 DIIS
   @RKS iter   8:  -151.53321318877224   -1.98952e-13   1.88558e-09 DIIS
  Energy and wave function converged.


  ==> Post-Iterations <==

    Orbital Energies [Eh]
    ---------------------

    Doubly Occupied:                                                      

       1A    -19.202740     2A    -19.202662     3A     -1.110533  
       4A     -0.894034     5A     -0.522345     6A     -0.489117  
       7A     -0.411512     8A     -0.318652     9A     -0.268898  

    Virtual:                                                              

      10A      0.024461    11A      0.069123    12A      0.115830  
      13A      0.777309    14A      0.780397    15A      0.812121  
      16A      0.839084    17A      0.921342    18A      0.955883  
      19A      0.983735    20A      1.045012    21A      1.187844  
      22A      1.318618    23A      1.510151    24A      1.513949  
      25A      1.688518    26A      1.799443    27A      1.966511  
      28A      2.290886    29A      2.329370    30A      2.465026  
      31A      2.475641    32A      2.945552    33A      3.430274  
      34A      3.651812  

    Final Occupation by Irrep:
              A 
    DOCC [     9 ]

  @RKS Final Energy:  -151.53321318877224

   => Energetics <=

    Nuclear Repulsion Energy =             36.6711994124767671
    One-Electron Energy =                -281.2031075920313015
    Two-Electron Energy =                 107.4333677908729072
    DFT Exchange-Correlation Energy =     -14.4346728000905973
    Empirical Dispersion Energy =           0.0000000000000000
    VV10 Nonlocal Energy =                  0.0000000000000000
    Total Energy =                       -151.5332131887722085

Computation Completed


Properties will be evaluated at   0.000000,   0.000000,   0.000000 [a0]

Properties computed using the SCF density matrix

  Nuclear Dipole Moment: [e a0]
     X:    -0.7383      Y:     0.4327      Z:    -0.0000

  Electronic Dipole Moment: [e a0]
     X:     0.1390      Y:    -0.0814      Z:     0.0000

  Dipole Moment: [e a0]
     X:    -0.5993      Y:     0.3512      Z:    -0.0000     Total:     0.6946

  Dipole Moment: [D]
     X:    -1.5233      Y:     0.8927      Z:    -0.0000     Total:     1.7656


*** tstop() called on Ewan at Mon Sep  9 15:59:44 2019
Module time:
	user time   =       1.68 seconds =       0.03 minutes
	system time =       0.04 seconds =       0.00 minutes
	total time  =          1 seconds =       0.02 minutes
Total time:
	user time   =      10.65 seconds =       0.18 minutes
	system time =       0.18 seconds =       0.00 minutes
	total time  =         10 seconds =       0.17 minutes

*** tstart() called on Ewan
*** at Mon Sep  9 15:59:44 2019


         ------------------------------------------------------------
                                   SCF GRAD                          
                          Rob Parrish, Justin Turney,                
                       Andy Simmonett, and Alex Sokolov              
         ------------------------------------------------------------

  ==> Geometry <==

    Molecular point group: c1
    Full point group: C1

    Geometry (in Angstrom), charge = 0, multiplicity = 1:

       Center              X                  Y                   Z               Mass       
    ------------   -----------------  -----------------  -----------------  -----------------
         O            0.024819301138    -0.014544531491    -0.728065887794    15.994914619570
         O            0.024819301138    -0.014544531491     0.728065890639    15.994914619570
         H            0.024819301138     0.945350169203    -0.890796725426     1.007825032230
         H           -0.812619940990    -0.483685630333     0.890796680271     1.007825032230

  Nuclear repulsion =   36.671199412476767

  ==> Basis Set <==

  Basis Set: 6-31G*
    Blend: 6-31G*
    Number of shells: 16
    Number of basis function: 34
    Number of Cartesian functions: 34
    Spherical Harmonics?: false
    Max angular momentum: 2

  ==> DirectJKGrad: Integral-Direct SCF Gradients <==

    Gradient:                    1
    J tasked:                  Yes
    K tasked:                  Yes
    wK tasked:                  No
    Integrals threads:           1
    Schwarz Cutoff:          0E+00

  ==> DFT Potential <==

   => Composite Functional: B3LYP <= 

    B3LYP Hyb-GGA Exchange-Correlation Functional

    P. J. Stephens, F. J. Devlin, C. F. Chabalowski, and M. J. Frisch, J. Phys. Chem. 98, 11623 (1994)

    Deriv               =              1
    GGA                 =           TRUE
    Meta                =          FALSE

    Exchange Hybrid     =           TRUE
    MP2 Hybrid          =          FALSE

   => Exchange Functionals <=

    0.0800   Slater exchange
    0.7200         Becke 88

   => Exact (HF) Exchange <=

    0.2000               HF 

   => Correlation Functionals <=

    0.1900   Vosko, Wilk & Nusair (VWN5_RPA)
    0.8100   Lee, Yang & Parr

   => Molecular Quadrature <=

    Radial Scheme          =       TREUTLER
    Pruning Scheme         =           FLAT
    Nuclear Scheme         =       TREUTLER

    BS radius alpha        =              1
    Pruning alpha          =              1
    Radial Points          =             75
    Spherical Points       =            302
    Total Points           =          87140
    Total Blocks           =            707
    Max Points             =            256
    Max Functions          =             34


  -Total Gradient:
     Atom            X                  Y                   Z
    ------   -----------------  -----------------  -----------------
       1       -0.000083547096    -0.000043829828    -0.000090638337
       2       -0.000002589118     0.000094310649     0.000090643451
       3        0.000038775740    -0.000018137078     0.000064601893
       4        0.000034771612    -0.000024966442    -0.000064607004


*** tstop() called on Ewan at Mon Sep  9 15:59:45 2019
Module time:
	user time   =       0.44 seconds =       0.01 minutes
	system time =       0.00 seconds =       0.00 minutes
	total time  =          1 seconds =       0.02 minutes
Total time:
	user time   =      11.09 seconds =       0.18 minutes
	system time =       0.18 seconds =       0.00 minutes
	total time  =         11 seconds =       0.18 minutes

			-----------------------------------------
			 OPTKING 2.0: for geometry optimizations 
			  - R.A. King,  Bethel University        
			-----------------------------------------

	Previous internal coordinate definitions found.
	---Fragment 1 Geometry and Gradient---
	 O           0.0469016818       -0.0274851811       -1.3758451292
	 O           0.0469016818       -0.0274851811        1.3758451346
	 H           0.0469016818        1.7864529124       -1.6833618445
	 H          -1.5356291326       -0.9140333721        1.6833617592
	            -0.0000835471       -0.0000438298       -0.0000906383
	            -0.0000025891        0.0000943106        0.0000906435
	             0.0000387757       -0.0000181371        0.0000646019
	             0.0000347716       -0.0000249664       -0.0000646070

	---Fragment 1 Intrafragment Coordinates---
	 - Coordinate -           - BOHR/RAD -       - ANG/DEG -
	 R(1,2)           =         2.751690	       1.456132
	 R(1,3)           =         1.839820	       0.973591
	 R(2,4)           =         1.839820	       0.973591
	 B(1,2,4)         =         1.738729	      99.621861
	 B(2,1,3)         =         1.738730	      99.621864
	 D(3,1,2,4)       =         2.081444	     119.257947

	Current energy   :      -151.5332131888

	Energy change for the previous step:
		Projected    :         0.0000118460
		Actual       :        -0.0000065997

	Performing BFGS update.
	Previous computed or guess Hessian on step 1.
	Steps to be used in Hessian update: 4 3
	Taking RFO optimization step.
	Going to follow RFO solution 1.
	Using RFO vector 1.
	Norm of target step-size    0.01124
	Projected energy change by RFO approximation:         0.0000023675

	Back-transformation to cartesian coordinates...
	Successfully converged to displaced geometry.

	--- Internal Coordinate Step in ANG or DEG, aJ/ANG or AJ/DEG ---
	 ---------------------------------------------------------------------------
	   Coordinate                Previous        Force       Change         New 
	   ----------                --------       ------       ------       ------
	    1 R(1,2)          =      1.456132    -0.000210    -0.000324     1.455808
	    2 R(1,3)          =      0.973591     0.000248     0.000063     0.973654
	    3 R(2,4)          =      0.973591     0.000248     0.000063     0.973654
	    4 B(1,2,4)        =     99.621861     0.000009     0.051908    99.673770
	    5 B(2,1,3)        =     99.621864     0.000009     0.051905    99.673770
	    6 D(3,1,2,4)      =    119.257947    -0.000001    -0.638844   118.619103
	 ---------------------------------------------------------------------------
	Successfully symmetrized geometry.

  ==> Convergence Check <==

  Measures of convergence in internal coordinates in au.
  Criteria marked as inactive (o), active & met (*), and active & unmet ( ).
  ---------------------------------------------------------------------------------------------
   Step     Total Energy     Delta E     MAX Force     RMS Force      MAX Disp      RMS Disp   
  ---------------------------------------------------------------------------------------------
    Convergence Criteria    1.00e-06 *    3.00e-04 *             o    1.20e-03 *             o
  ---------------------------------------------------------------------------------------------
      5    -151.53321319   -6.60e-06      1.12e-04 *    7.47e-05 o    1.11e-02      4.59e-03 o  ~
  ---------------------------------------------------------------------------------------------

	Writing optimization data to binary file.
	Structure for next step:
	Cartesian Geometry (in Angstrom)
	    O     0.0273538734  -0.0147347755  -0.7279030296
	    O     0.0262240157  -0.0166627776   0.7279030136
	    H     0.0221294772   0.9452754703  -0.8902468853
	    H    -0.8138694010  -0.4813024429   0.8902468590
			--------------------------
			 OPTKING Finished Execution 
			--------------------------

    Structure for next step:
    Molecular point group: c2
    Full point group: C2

    Geometry (in Angstrom), charge = 0, multiplicity = 1:

    O       
    O             1          R1
    H             1          R2      2          A2
    H             2          R3      1          A3      3          D3

    A2        =   99.6737695723
    A3        =   99.6737695723
    D3        =  118.6191026273
    R1        =    1.4558077641
    R2        =    0.9736541995
    R3        =    0.9736541995


Traceback (most recent call last):
  File "/home/snelliott/miniconda/envs/pacc-env-mini/bin/psi4", line 287, in <module>
    exec(content)
  File "<string>", line 39, in <module>
  File "/home/snelliott/miniconda/envs/pacc-env-mini/lib//python3.7/site-packages/psi4/driver/driver.py", line 1038, in optimize
    """input, such as DOCC, is correct.""" % (current_sym, initial_sym))

psi4.driver.p4util.exceptions.ValidationError: Point group changed! (c2 <-- c1) You should restart using the last geometry in the output, after carefully making sure all symmetry-dependent input, such as DOCC, is correct.


Printing out the relevant lines from the Psithon --> Python processed input file:
    core.IO.set_default_namespace("")
    core.set_global_option("BASIS", "6-31g*")
    core.set_global_option("SCF_TYPE", "pk")
    core.set_global_option("REFERENCE", "rks")
    core.set_global_option("MP2_TYPE", "conv")
--> optimize('B3LYP')

    Psi4 stopped on: Monday, 09 September 2019 03:59PM
    Psi4 wall time for execution: 0:00:11.31

*** Psi4 encountered an error. Buy a developer more coffee!
*** Resources and help at github.com/psi4/psi4.
