[Molden Format]
[Molpro variables]
_NUMVAR=  685.0000000000000    
_EV2006= 0.3674930886769165E-01
_EV= 0.3674932534394180E-01
_KJOULE= 0.3808798324128737E-03
_KJOULE/MOL= 0.3808798324128737E-03
_CM= 0.4556335267302901E-05
_CM-1= 0.4556335267302901E-05
_KCAL= 0.1593601117815568E-02
_KCAL/MOL= 0.1593601117815568E-02
_KELVIN2006= 0.3166828861084835E-05
_KELVIN= 0.3166814820820034E-05
_HERTZ2006= 0.1519829850815779E-15
_HERTZ= 0.1519829846011223E-15
_HZ2006= 0.1519829850815779E-15
_HZ= 0.1519829846011223E-15
_TOA2006= 0.5291772490000000    
_TOA= 0.5291772090000000    
_TOANG2006= 0.5291772490000000    
_TOANG= 0.5291772090000000    
_TORAD= 0.1745329251994330E-01
_TOCM=  219474.6306700000    
_TODEBYE=  2.541580000000000    
_TOEV2006=  27.21139610000000    
_TOEV=  27.21138390000000    
_TOHERTZ2006=  6579683899900000.    
_TOHERTZ=  6579683920700000.    
_TOHZ2006=  6579683899900000.    
_TOHZ=  6579683920700000.    
_TOK2006=  315773.3000000000    
_TOK=  315774.7000000000    
_TOKCAL=  627.5096000000000    
_TOKELVIN2006=  315773.3000000000    
_TOKELVIN=  315774.7000000000    
_TOKJ=  2625.500000000000    
_TOKJOULE=  2625.500000000000    
_ANG2006=  1.889725988578923    
_ANG=  1.889726131421507    
_ANGSTROM2006=  1.889725988578923    
_ANGSTROM=  1.889726131421507    
_IGNORE_UNDEF=  2.000000000000000    
_STRICTCHECK=  0.000000000000000    
_SEW_ONEEL=  0.000000000000000    
_CPPDONE=FALSE
_DKROLL_DONE=  0.000000000000000    
_FOCKDONE=  0.000000000000000    
_GRADONE=FALSE
_HESSDONE=FALSE
_INTDONE=TRUE
_SCFDONE=FALSE
_MODUL_CUDA=FALSE
_MODUL_SLATER=FALSE
_MODUL_MRCC=FALSE
_MRCC_EXEC=
_FITC_AO_SAVED=FALSE
_FITC_MO_SAVED=FALSE
_SHARED_FS=TRUE
_LSTYP=SEWARD
_INTYP=INTS
_GEOMTYP=ZMAT
_GRADTYP=ALASKA
_DIRECT=FALSE
_SYNCM=  0.000000000000000    
_BASIS=CC-PVDZ
_ZORIENT=  1.000000000000000    
_NELEC=  10.00000000000000    
_SPIN=  0.000000000000000    
!SPIN=  0.000000000000000    
_QSDSTEP=  0.000000000000000    
_QSDIRC=  0.000000000000000    
_PROGRAM=RS2
_CPUSTEP= 0.3999999999999992E-01
_SYSSTEP= 0.1000000000000001E-01
_WALLSTEP=  1.560000000000000    
!DFMP2=  0.000000000000000    
!DFSCF=  0.000000000000000    
!SCSGRD=  0.000000000000000    
_BASINP=  610.0000000000000    
_CPUTOT= 0.5599999999999999    
_DFTEXFAC=  1.000000000000000    
_DMX=-0.2562895160588718E-02
_DMY= 0.2456283512879578E-02
_DMZ=  2.037825151237664    
_EMP2= -40.22690107875325    
_ENERGR= -39.84221143981308    
_ENERGU= -40.12313921180402    
_ENERGY= -40.22690107875325    
_ENUC=  10.05639695351601    
_GRADEXFAC=  9999.000000000000    
_GRADMETHOD=TRUE
!GRID_FREEZE= -1.000000000000000    
_ITERATIONS=  9.000000000000000    
_LASTNELEC=  2.000000000000000    
_LASTSPIN=  0.000000000000000    
_LASTSYM=  1.000000000000000    
_MPP_PROG=  1.000000000000000    
_NPROC_MPP=  4.000000000000000    
_NPROC_SMP=  1.000000000000000    
_NUMSTEP=  0.000000000000000    
_ORBITAL=  2141.200000000000    
_PI=  3.141592653589793    
!MCACT=  2.000000000000000    
!MCCLOSED=  4.000000000000000    
!MCFREEZE=  0.000000000000000    
!MCMS2=  0.000000000000000    
!MCNEL=  2.000000000000000    
!MCNSTSYM=  1.000000000000000    
!MCSTATE=  1.000000000000000    
!MCSYM=  1.000000000000000    
!MCWEIGHT=  1.000000000000000    
_SEIG_MIN= 0.1529444121574596E-01
_SEWPROP=TRUE
_STATUS=  1.000000000000000    
_SYSTOT= 0.1300000000000000    
_VERSION=  2010001.000000000    
_WALLTOT=  8.760000000000000    
_DATE=30-Aug-19
_LASTORB=MCSCF
_MACHINE=Linux-2.6.34-12-desktop/tt106(x86_64) 64 bit mpp version
_OUTPUT=/home/carlo/qm/combustion/test_diss/newalg/ch4_ch3_h_vrc_test1/dist_10.0/molpro.xml
_PGROUP=C1
_TIME=07:50:45
_LIBMOL=/programs/molpro2010p/bin/../lib/
!SURFREC=  0.000000000000000    
!POLYREC=  0.000000000000000    
!DIPREC=  0.000000000000000    
!VSCFREC=  0.000000000000000    
!VCIREC=  0.000000000000000    
!PVCIREC=  0.000000000000000    
!VMP2REC=  0.000000000000000    
!VMCSCFREC=  0.000000000000000    
!GAREC=  0.000000000000000    
!SCFORB=  21002.00000000000    
!MCORB=  21412.00000000000    
!CIOCC=  6.000000000000000    
!CICORE=  1.000000000000000    
!CICLOS=  4.000000000000000    
!CIISTSYM=  1.000000000000000    
!CIISTMS2=  0.000000000000000    
!CIISTNEL=  8.000000000000000    
!NEWMOL=  0.000000000000000    
!NEWSYM=  0.000000000000000    
_SLFILES=slscratch
_NGSSTO=  9.000000000000000    
_SIN=SIN
_COS=COS
_TAN=TAN
_ACOS=ACOS
_ASIN=ASIN
_ATAN=ATAN
_COSH=COSH
_SINH=SINH
_TANH=TANH
_ABS=ABS
_MOD=MOD
_ERF=ERF
_REFC=REFC
_ERFC=ERFC
_HYPOT=HYPOT
_J0=J0
_J1=J1
_JN=JN
_GAMMA=GAMMA
_LGAMMA=LGAMMA
_Y0=Y0
_Y1=Y1
_YN=YN
_EXP=EXP
_LOG=LOG
_LOG10=LOG10
_SQRT=SQRT
_INT=INT
_NINT=NINT
_MAX=MAX
_MIN=MIN
_COSMO=  0.000000000000000    
_COSMOIT=  0.000000000000000    
_COSMOES=  0.000000000000000    
_COSMOEDS=  0.000000000000000    
_COSMOEC=  0.000000000000000    
_COSMOEDCORR=  0.000000000000000    
_FEPSI=  1.000000000000000    
_SL_IsMM=  0.000000000000000    
_SL_NSYM=  0.000000000000000    
_SL_System_BitSw=  0.000000000000000    
_SL_Unique_atoms=  0.000000000000000    
_SL_GRAD=  0.000000000000000    
_SL_MAXUPD_Hess=  5.000000000000000    
_SL_N_PRINT_COD=  5.000000000000000    
_SL_PRINT_CODES=  0.000000000000000    
_SL_BasType=  0.000000000000000    
_SL_Energy_Pred=  0.000000000000000    
_SL_New_Coords=  0.000000000000000    
_SL_Total_Nuclea=  0.000000000000000    
_SL_Highest_Mltp=  0.000000000000000    
_SL_Ref_Geom=  0.000000000000000    
!LATTICE= -1.000000000000000    
!NEWLATTICE=  0.000000000000000    
!LATGRAD_VAR=FALSE
!SEW_LATTICE=  1.000000000000000    
!LOCAL=  0.000000000000000    
!SAVEDOM= -1.000000000000000    
!RESTDOM= -1.000000000000000    
!SAVEDOM_HF= -1.000000000000000    
!RESTDOM_HF= -1.000000000000000    
!HESSREC=  0.000000000000000    
!FREQREC=  0.000000000000000    
!NMODREC=  0.000000000000000    
!GTASKS=  0.000000000000000    
!HTASKS=  0.000000000000000    
!THRCHG= 0.1000000000000000    
!DEBUG= -1.000000000000000    
!CFIT_CPHF=  0.000000000000000    
!RDOMAUX_CPHF=  3.000000000000000    
!THRAO_CPHF= 0.1000000000000000E-09
!THRMO_CPHF= 0.1000000000000000E-08
!THROV_CPHF= 0.1000000000000000E-11
!THRSW_CPHF= 0.1000000000000000E-09
!THRPROD_CPHF= 0.1000000000000000E-08
!THRAOPR_CPHF= 0.1000000000000000E-11
!CFIT_SCFGRD=  0.000000000000000    
!RDOMAUX_SCFGRD=  5.000000000000000    
!THRAO_SCFGRD= 0.1000000000000000E-09
!THRMO_SCFGRD= 0.1000000000000000E-08
!THROV_SCFGRD= 0.1000000000000000E-11
!THRSW_SCFGRD= 0.1000000000000000E-09
!THRPROD_SCFGRD= 0.1000000000000000E-08
!THRAOPR_SCFGRD= 0.1000000000000000E-11
!LOCFIT_SCF=  0.000000000000000    
!LOCFIT_MP2= -1.000000000000000    
_RIDOM=  0.000000000000000    
!CC2_METHOD=  0.000000000000000    
_BASIS2006=FALSE
_SVDDEL= -1.000000000000000    
_SVDDELA= -1.000000000000000    
_SVDDELP= -1.000000000000000    
_SVDDELF= -1.000000000000000    
_SVDDELS= -1.000000000000000    
_SVDDEL_ABS= -1.000000000000000    
_SVDDELA_ABS= -1.000000000000000    
_SVDDELP_ABS= -1.000000000000000    
_SVDDELF_ABS= -1.000000000000000    
_SVDDELS_ABS= -1.000000000000000    
_MAXBASIS=  0.000000000000000    
!OPT_CONICAL=  0.000000000000000    
!CLEARSP_JGRID=  0.000000000000000    
RCH1=  1.089850257541075    
RCH2=  1.089850266261031    
RCH3=  1.089850252462761    
AHCC1=  120.0000000064769    
AHCC2=  120.0000001722860    
AHCC3=  96.32004597408775    
B1=  180.0009651540326    
B2= -109.1363720541178    
RCH4=  10.00000000000000    
GX1=-0.7397023504333862E-02
GY1= 0.1431641943883122E-08
GZ1=  1.187262312058954    
GX2= 0.6101906275903743    
GY2=  1.951163871639843    
GZ2=  1.417830180613643    
GX3=  1.266838845840998    
GY3= -1.546486523676687    
GZ3=  1.662992216529269    
GX4= -1.899210015182018    
GY4=-0.4046773605208139    
GZ4= 0.4809363993853052    
GX5= 0.1103263136324603    
GY5=-0.4502338279976925E-08
GZ5= -17.70963231096371    
CBSEN= -40.22690107875325    
[Atoms] Angs
C     1    6        -0.0039143363        0.0000000008        0.6282721566
H     2    1         0.3228989733        1.0325114519        0.7502834178
H     3    1         0.6703822447       -0.8183654224        0.8800175797
H     4    1        -1.0050186551       -0.2141460362        0.2545005815
H     5    1         0.0583821707       -0.0000000024       -9.3715337987
[GTO]
  1 0
 s    9  1.00
  0.6665000000D+04  0.6920001793D-03
  0.1000000000D+04  0.5329001381D-02
  0.2280000000D+03  0.2707700701D-01
  0.6471000000D+02  0.1017180264D+00
  0.2106000000D+02  0.2747400712D+00
  0.7495000000D+01  0.4485641162D+00
  0.2797000000D+01  0.2850740738D+00
  0.5215000000D+00  0.1520400394D-01
  0.1596000000D+00 -0.3191000827D-02
 s    9  1.00
  0.6665000000D+04 -0.1460000642D-03
  0.1000000000D+04 -0.1154000508D-02
  0.2280000000D+03 -0.5725002519D-02
  0.6471000000D+02 -0.2331201026D-01
  0.2106000000D+02 -0.6395502813D-01
  0.7495000000D+01 -0.1499810660D+00
  0.2797000000D+01 -0.1272620560D+00
  0.5215000000D+00  0.5445292395D+00
  0.1596000000D+00  0.5804962554D+00
 s    9  1.00
  0.6665000000D+04  0.0000000000D+00
  0.1000000000D+04  0.0000000000D+00
  0.2280000000D+03  0.0000000000D+00
  0.6471000000D+02  0.0000000000D+00
  0.2106000000D+02  0.0000000000D+00
  0.7495000000D+01  0.0000000000D+00
  0.2797000000D+01  0.0000000000D+00
  0.5215000000D+00  0.0000000000D+00
  0.1596000000D+00  0.1000000000D+01
 p    4  1.00
  0.9439000000D+01  0.3810902127D-01
  0.2002000000D+01  0.2094801169D+00
  0.5456000000D+00  0.5085572839D+00
  0.1517000000D+00  0.4688422617D+00
 p    4  1.00
  0.9439000000D+01  0.0000000000D+00
  0.2002000000D+01  0.0000000000D+00
  0.5456000000D+00  0.0000000000D+00
  0.1517000000D+00  0.1000000000D+01
 d    1  1.00
  0.5500000000D+00  0.1000000000D+01
  
  2 0
 s    4  1.00
  0.1301000000D+02  0.1968498999D-01
  0.1962000000D+01  0.1379769298D+00
  0.4446000000D+00  0.4781477569D+00
  0.1220000000D+00  0.5012397451D+00
 s    4  1.00
  0.1301000000D+02  0.0000000000D+00
  0.1962000000D+01  0.0000000000D+00
  0.4446000000D+00  0.0000000000D+00
  0.1220000000D+00  0.1000000000D+01
 p    1  1.00
  0.7270000000D+00  0.1000000000D+01
  
  3 0
 s    4  1.00
  0.1301000000D+02  0.1968498999D-01
  0.1962000000D+01  0.1379769298D+00
  0.4446000000D+00  0.4781477569D+00
  0.1220000000D+00  0.5012397451D+00
 s    4  1.00
  0.1301000000D+02  0.0000000000D+00
  0.1962000000D+01  0.0000000000D+00
  0.4446000000D+00  0.0000000000D+00
  0.1220000000D+00  0.1000000000D+01
 p    1  1.00
  0.7270000000D+00  0.1000000000D+01
  
  4 0
 s    4  1.00
  0.1301000000D+02  0.1968498999D-01
  0.1962000000D+01  0.1379769298D+00
  0.4446000000D+00  0.4781477569D+00
  0.1220000000D+00  0.5012397451D+00
 s    4  1.00
  0.1301000000D+02  0.0000000000D+00
  0.1962000000D+01  0.0000000000D+00
  0.4446000000D+00  0.0000000000D+00
  0.1220000000D+00  0.1000000000D+01
 p    1  1.00
  0.7270000000D+00  0.1000000000D+01
  
  5 0
 s    4  1.00
  0.1301000000D+02  0.1968498999D-01
  0.1962000000D+01  0.1379769298D+00
  0.4446000000D+00  0.4781477569D+00
  0.1220000000D+00  0.5012397451D+00
 s    4  1.00
  0.1301000000D+02  0.0000000000D+00
  0.1962000000D+01  0.0000000000D+00
  0.4446000000D+00  0.0000000000D+00
  0.1220000000D+00  0.1000000000D+01
 p    1  1.00
  0.7270000000D+00  0.1000000000D+01
 
 
[MO]
 Sym=      1.1
 Ene=     -11.3703
 Spin= Alpha
 Occup=    2.000000
1 1.00118491372201
2 0.005199415066830
3 -0.006615861867205
4 0.002065739607360
5 0.000438911767837
6 0.000754861712095
7 -0.000449782461181
8 -0.000094515187328
9 -0.000162342166550
10 0.000215424207133
11 0.000504613137912
12 -0.000720037345045
13 -0.000031453855348
14 0.000468906781305
15 -0.000011649503707
16 -0.000225999847285
17 0.001427841950593
18 0.000175528157528
19 0.000449466201419
20 0.000066524573618
21 -0.000227348360282
22 0.001429068148930
23 0.000324681887743
24 -0.000343077116612
25 0.000122202275168
26 -0.003147203992667
27 0.002407289347127
28 -0.000520637148185
29 -0.000111357012292
30 -0.000194108194322
31 0.000007346925144
32 0.000003658336044
33 0.000000073111120
34 0.000000001490338
35 0.000000380428407
 Sym=      2.1
 Ene=      -0.9230
 Spin= Alpha
 Occup=    2.000000
1 -0.018007883291882
2 0.70100366761227
3 -0.13842102123918
4 0.29603262688080
5 0.063285753600304
6 0.11101566252567
7 -0.057005985895665
8 -0.012153653734907
9 -0.021055866718189
10 -0.006689232800481
11 0.011675371635238
12 -0.004986138834757
13 -0.004210177443690
14 -0.000774138815955
15 -0.001556791576673
16 0.45197129530370
17 -0.18444221244194
18 -0.004874148934930
19 -0.031213637062921
20 -0.001741638295142
21 0.45216258873762
22 -0.18444123033373
23 -0.015772067827156
24 0.026807605046693
25 -0.005814480479674
26 0.002015162061762
27 -0.031777402273308
28 0.012828836006300
29 0.002742664068268
30 0.004769233378281
31 0.000960839622259
32 0.000476590763234
33 0.000005273794182
34 0.000000226956314
35 0.000024868388349
 Sym=      3.1
 Ene=      -0.6685
 Spin= Alpha
 Occup=    2.000000
1 0.000000614009852
2 -0.000165941888814
3 -0.000052176635198
4 0.12438393377846
5 -0.66280391555645
6 0.046412527265967
7 -0.023722254238383
8 0.12609078160465
9 -0.008867232946837
10 0.007179730878881
11 -0.008195245908617
12 0.001015515029736
13 -0.021205268749048
14 0.003126711973339
15 -0.008072525421004
16 -0.54649839634138
17 0.18414501474744
18 0.011833424238399
19 0.017949054682054
20 0.004300026930456
21 0.54644681248673
22 -0.18395138225230
23 -0.017397287106632
24 0.011693638295201
25 -0.006382669414495
26 -0.000030481770262
27 -0.000007278485359
28 0.002241841140671
29 -0.011957204455908
30 0.000837115750558
31 -0.000013952318903
32 -0.000006906894999
33 0.000000355615082
34 -0.000002231942415
35 -0.000000472868876
 Sym=      4.1
 Ene=      -0.1787
 Spin= Alpha
 Occup=    2.000000
1 -0.000395336952104
2 -0.001475674102197
3 0.001503265850438
4 0.15413923242679
5 -0.000298665999348
6 -0.41694703882615
7 0.056707868876428
8 0.000054245236406
9 -0.15137537628054
10 -0.000114871515563
11 -0.000283400530843
12 0.000398272046406
13 0.000027932134370
14 -0.000260297574715
15 -0.000015899782618
16 -0.001499438087009
17 0.001222406672140
18 0.004135050089555
19 -0.000020609616305
20 -0.011162148768517
21 -0.001473617113973
22 0.001183869330179
23 0.004122845537096
24 0.000007161757368
25 -0.011147291609389
26 0.000464272425473
27 0.000672229270710
28 0.004197211495340
29 0.000021976732288
30 -0.010919796494760
31 0.54869547461951
32 0.27219297566303
33 -0.000004874018766
34 0.000000031589438
35 0.000592393196527
 Sym=      5.1
 Ene=      -0.7377
 Spin= Alpha
 Occup=    1.983379
1 0.003137060241279
2 -0.39073175603076
3 0.091005989922584
4 0.55498465143383
5 0.11861790388925
6 0.20548405458367
7 -0.11460127784356
8 -0.024485728000478
9 -0.043325623438356
10 -0.016595340057943
11 0.016520883335924
12 0.000074456722019
13 -0.008083494391188
14 -0.008158040679145
15 -0.002988456145738
16 0.11175610605156
17 -0.020571448803788
18 0.009474881296777
19 0.000065286448809
20 0.003540099106445
21 0.11180264423634
22 -0.020486222583028
23 0.008767691810468
24 0.003834680460702
25 0.003274669107459
26 -0.72748197000096
27 0.26422674729683
28 -0.027503962598421
29 -0.005887474393761
30 -0.010472131294195
31 0.000771635436008
32 0.000382866578481
33 -0.000000644671736
34 0.000000417585290
35 -0.000014418498413
 Sym=      6.1
 Ene=       0.6591
 Spin= Alpha
 Occup=    0.016621
1 -0.18025687379902
2 -1.22149846492546
3 0.51832030542816
4 1.11891660583593
5 0.23912027932767
6 0.41370564641421
7 -0.41466294394216
8 -0.088589765728721
9 -0.15258603722742
10 -0.092840971180823
11 0.064206628731253
12 0.028634342449571
13 -0.039848639251215
14 -0.059557455238837
15 -0.014669431466282
16 0.060130916202738
17 -0.018845804807234
18 0.011486748201318
19 -0.006398865785715
20 0.004232611250342
21 0.060134330405881
22 -0.018849498316214
23 0.008295475631603
24 0.010614376415297
25 0.003040481336944
26 1.84454810469953
27 -0.76836373061319
28 0.018083369165561
29 0.003856433166926
30 0.007067063184329
31 -0.000907026319892
32 -0.000448864766766
33 -0.000000052478257
34 0.000000029423678
35 -0.000002291290609
 Sym=      7.1
 Ene=      -0.1256
 Spin= Alpha
 Occup=    0.000000
1 -0.000629721122359
2 -0.005692943563014
3 0.000870516673506
4 -0.20793636528124
5 0.000343559373388
6 0.56239872597280
7 -0.075592980444953
8 0.000145089170609
9 0.20399073027526
10 -0.000263880870872
11 -0.000327306802061
12 0.000591187672933
13 0.000028872777205
14 0.000015994448273
15 0.000044914038917
16 -0.001620509186710
17 0.001739728029017
18 -0.005622830524039
19 -0.000038071117897
20 0.015152649321760
21 -0.001521223013672
22 0.001688491954561
23 -0.005649841576702
24 0.000047322752393
25 0.015169431697068
26 -0.000155638557249
27 0.004455707741315
28 -0.005619442402672
29 -0.000031469338468
30 0.014629856463770
31 0.40698040416740
32 0.20189262665907
33 -0.000002900472115
34 0.000000020375749
35 -0.000200825990707
 Sym=      8.1
 Ene=       0.1614
 Spin= Alpha
 Occup=    0.000000
1 -0.063564642033359
2 0.17288148694228
3 1.68706244075366
4 0.29161586133325
5 0.061346377679589
6 0.11066107512155
7 0.52441860642313
8 0.10952313348851
9 0.19459358571541
10 0.011130319795522
11 0.009422064790356
12 -0.020552384585877
13 0.001498389946826
14 0.016001076387459
15 0.000580121826817
16 -0.067095114357253
17 -1.37600724111919
18 0.009894849544346
19 0.014824846876213
20 0.003725115087947
21 -0.066947059683578
22 -1.38446513126444
23 0.014540745420964
24 -0.009668091932395
25 0.005464570760686
26 0.10307195066897
27 0.16402222610769
28 -0.016016484037413
29 -0.003424172916403
30 -0.005849402327980
31 0.000862867187205
32 0.000428166357237
33 -0.000003265416712
34 -0.000000270924941
35 -0.000014135817381
 Sym=      9.1
 Ene=       0.2060
 Spin= Alpha
 Occup=    0.000000
1 0.000109093601224
2 -0.000568654415722
3 -0.003646208065172
4 0.085845704948427
5 -0.46081898245875
6 0.032023731093909
7 0.21479391862175
8 -1.14986784210980
9 0.080224174979458
10 0.003695594141714
11 -0.004261997296860
12 0.000566403155146
13 -0.011068503670599
14 0.001598090903960
15 -0.004253454623141
16 0.063316386900789
17 1.80329893462531
18 -0.002141057515658
19 -0.017150243638882
20 -0.000701529714926
21 -0.062933841675408
22 -1.79733395452310
23 0.008112925942846
24 -0.014950601541474
25 0.002932119645429
26 -0.000398766083335
27 0.000030953916187
28 0.001201599084842
29 -0.006119432959506
30 0.000446023270737
31 -0.000010430443368
32 -0.000005172369397
33 -0.000000162217837
34 0.000001514481561
35 0.000000311277144
 Sym=     10.1
 Ene=       0.3868
 Spin= Alpha
 Occup=    0.000000
1 -0.077535348067592
2 -0.28649541645150
3 1.22132411531838
4 0.066355943715338
5 0.014124480655800
6 0.025855146067138
7 -1.12376906032146
8 -0.24019680740981
9 -0.41940195877756
10 0.11724054509576
11 -0.044952614588927
12 -0.072287930506837
13 0.043581340623127
14 0.095199630801246
15 0.016311596763545
16 0.16306265432128
17 0.30231990428808
18 0.021958023890212
19 0.004983303515908
20 0.008375651844717
21 0.16342150285584
22 0.30181167814365
23 0.022050067094804
24 0.004459305605344
25 0.008409227045673
26 1.04755935045671
27 -3.16606506318428
28 -0.15090405084338
29 -0.032278691442560
30 -0.056270911778410
31 0.001237945634133
32 0.000614909540925
33 -0.000002751083876
34 0.000000698929080
35 -0.000035344887539
 Sym=     11.1
 Ene=       0.5372
 Spin= Alpha
 Occup=    0.000000
1 -0.000096338276225
2 -0.000417217361943
3 0.001251283005841
4 -0.081164915620237
5 0.43985831857888
6 -0.030134050703310
7 0.29618526780591
8 -1.60228762461518
9 0.11039931748810
10 -0.039653945784863
11 0.045257033917980
12 -0.005603088133117
13 0.11684009673760
14 -0.016991888856679
15 0.043374851538572
16 1.13539968814128
17 -0.40787424478464
18 0.033434081768907
19 -0.008732487766077
20 0.012487943592613
21 -1.13223881540283
22 0.40698817962122
23 -0.027868198095464
24 -0.021958115757344
25 -0.010394420871249
26 -0.001934141074052
27 -0.001402843951924
28 0.013095772416417
29 -0.070777968975314
30 0.004896091598041
31 0.000015856741187
32 0.000007872523503
33 0.000001178142554
34 -0.000006950326689
35 -0.000001487289682
 Sym=     12.1
 Ene=       0.5450
 Spin= Alpha
 Occup=    0.000000
1 0.004919635707135
2 0.089744941369866
3 -0.16585120860120
4 -0.51713093279000
5 -0.10980670629760
6 -0.19340488135233
7 1.78690350454303
8 0.37878216719721
9 0.66724123745215
10 0.044592221193323
11 -0.10911312551935
12 0.064520904326023
13 0.034336398650450
14 -0.009787299146786
15 0.012848263443104
16 -0.86399406308920
17 0.30777179391946
18 0.044683154574764
19 -0.035170271237169
20 0.016616169487767
21 -0.86906138101454
22 0.30977808706988
23 0.028403381059280
24 0.050785327105232
25 0.010539458099714
26 0.84952262766201
27 0.29878339843248
28 0.059029663350990
29 0.012447224366981
30 0.021970321744094
31 -0.000317672347041
32 -0.000157935545773
33 0.000008472014107
34 0.000001118006727
35 0.000014339823212
 Sym=     13.1
 Ene=       0.6518
 Spin= Alpha
 Occup=    0.000000
1 0.003832998615733
2 0.011539181308604
3 -0.029316956348437
4 -0.55558176204550
5 -0.001837578942233
6 1.46214556069100
7 0.63778353945891
8 0.004442929211663
9 -1.64593902323977
10 -0.000255758216061
11 0.002997484664466
12 -0.002741726448406
13 -0.000682217337979
14 0.001085107523056
15 -0.000274793052711
16 0.015121827090826
17 -0.014223497845369
18 -0.018679654135543
19 0.001758720704502
20 0.051175723596035
21 0.015342217508728
22 -0.014431109005333
23 -0.018052581187774
24 -0.001469608337902
25 0.051390484940928
26 0.010993942108758
27 0.013831615126411
28 -0.018141635111502
29 0.000224555771915
30 0.051632563359632
31 -0.000076438843986
32 -0.000037988459745
33 0.000003973161105
34 0.000000006589161
35 0.000009884154521
 Sym=     14.1
 Ene=       0.6932
 Spin= Alpha
 Occup=    0.000000
1 -0.17152585406502
2 -0.44612146302822
3 1.20006699807281
4 0.70510108457201
5 0.15209609084826
6 0.28720542884682
7 -1.56393564560514
8 -0.33553463473105
9 -0.61090256775917
10 0.047110464513577
11 -0.24193339920820
12 0.19482293469462
13 0.059879469239709
14 -0.073941000289902
15 0.022369372249195
16 -1.01942340079663
17 1.20634535920596
18 -0.028786795314820
19 -0.15048365838549
20 -0.010110972567808
21 -1.01899063123922
22 1.20667258523457
23 -0.080957296628973
24 0.12721537070974
25 -0.029586272323605
26 -0.58787343190242
27 -0.98249442963717
28 -0.084122989854363
29 -0.017920433097004
30 -0.030663851866784
31 -0.000734458308306
32 -0.000363309831784
33 0.000013384315467
34 -0.000000108013513
35 0.000080211659543
 Sym=     15.1
 Ene=       0.7395
 Spin= Alpha
 Occup=    0.000000
1 0.000000098879271
2 0.000000493077585
3 -0.000000829517400
4 -0.000000531417636
5 -0.000000112471169
6 -0.000000340334437
7 0.000001144346247
8 0.000000224518658
9 0.000000332414362
10 -0.000000100031570
11 0.000000118851821
12 -0.000000018820251
13 -0.000000056925546
14 -0.000000056116581
15 -0.000000021249128
16 0.000000113523862
17 -0.000000341371372
18 -0.000000009218180
19 0.000000043483464
20 -0.000000010394480
21 0.000000119558849
22 -0.000000363147722
23 0.000000010834661
24 -0.000000046981292
25 -0.000000005050837
26 -0.000000314141527
27 0.000001236750216
28 0.000000147814488
29 0.000000032610899
30 0.000000057342248
31 -2.23323633278080
32 2.31067070121794
33 0.000001986144862
34 -0.000000013509167
35 -0.000117520678392
 Sym=     16.1
 Ene=       0.8055
 Spin= Alpha
 Occup=    0.000000
1 0.000268035189120
2 0.001137534204513
3 -0.002031980326492
4 0.23042566743758
5 -1.22713473160393
6 0.086063951805716
7 -0.43212706430520
8 2.30171578879141
9 -0.16137482474401
10 -0.096989905270143
11 0.11057191964595
12 -0.013582014375804
13 0.28628490414663
14 -0.041817401100648
15 0.10703625675859
16 0.54469215380822
17 -1.79813506406655
18 0.099884115962448
19 0.21508174825040
20 0.037491373285666
21 -0.54404650541938
22 1.79818423783281
23 -0.16986363494347
24 0.15743325967098
25 -0.063609756905502
26 0.000192242553689
27 0.000296272846505
28 0.011840597534482
29 -0.062935755767446
30 0.004420823913941
31 -0.000001736321242
32 -0.000000837468812
33 -0.000000358412928
34 0.000001746905340
35 0.000000352694312
 Sym=     17.1
 Ene=       0.9580
 Spin= Alpha
 Occup=    0.000000
1 -0.77622242485817
2 -3.46062560855587
3 5.91999406078923
4 -0.34393071682052
5 -0.073737620516166
6 -0.12527310362341
7 0.57782611147015
8 0.12419541422262
9 0.21206009157677
10 -0.087372829239265
11 0.096067377150614
12 -0.008694547911348
13 -0.044171100648599
14 -0.039057733032054
15 -0.016414844150180
16 -0.12114606278963
17 -1.08116141421289
18 0.036759628057534
19 0.19759903789839
20 0.013888726071143
21 -0.12146007078124
22 -1.07983518804122
23 0.10515580361027
24 -0.16711484369205
25 0.039405368707032
26 -0.39880399375104
27 -0.29018215454330
28 -0.064634517216364
29 -0.013847881908622
30 -0.024270743221796
31 -0.000503061525557
32 -0.000249590733950
33 0.000018307241804
34 0.000000094965950
35 0.000098524496287
 Sym=     18.1
 Ene=       1.1197
 Spin= Alpha
 Occup=    0.000000
1 0.000016128651884
2 0.000066448019625
3 -0.000119809319336
4 -0.000057322566212
5 0.000340926273268
6 -0.000003376375673
7 0.000145112412587
8 -0.000927805443488
9 0.000111396388399
10 0.074744451098337
11 -0.000011061183146
12 -0.074733389915190
13 -0.21816462401047
14 -0.099454261724000
15 0.58428807622619
16 -0.000253135378865
17 0.000644973308469
18 -0.12216610410617
19 -0.000135597408471
20 0.32723306453933
21 0.000259377102174
22 -0.000606946683606
23 0.12371186962876
24 -0.000119473975995
25 -0.33122819081100
26 0.000022203230883
27 -0.000003494040082
28 -0.001433987530166
29 -0.000102910811625
30 0.003897425270231
31 0.000038699176854
32 0.000019181606058
33 0.000013564208121
34 -0.000069475129318
35 -0.000010241694169
 Sym=     19.1
 Ene=       1.1212
 Spin= Alpha
 Occup=    0.000000
1 -0.000486463204424
2 -0.002426752388161
3 0.003686137086915
4 0.000290348731875
5 0.000107432852833
6 0.000868485253372
7 -0.000970439082042
8 -0.000122395950788
9 0.000725196121766
10 0.35500038508496
11 -0.000216276933618
12 -0.35478410815134
13 0.046295679791256
14 -0.47179485880495
15 -0.12357569771432
16 0.000282184201345
17 -0.000544576531965
18 0.072635681856995
19 0.000071345076020
20 -0.19387414865002
21 0.000255773456007
22 -0.000518802712902
23 0.070118388240392
24 0.000028253419889
25 -0.18711807012339
26 0.000213604486000
27 -0.001134086215464
28 -0.14140799656949
29 -0.000048182031176
30 0.37802033979788
31 0.000187223730410
32 0.000092799492901
33 0.000067595534802
34 0.000015427332708
35 -0.000050424437717
 Sym=     20.1
 Ene=       1.5300
 Spin= Alpha
 Occup=    0.000000
1 0.000026826270024
2 0.000134756291155
3 -0.000204722017780
4 -0.000100095376388
5 0.000287480181575
6 -0.000037070962112
7 -0.001988214516401
8 0.013840715984090
9 -0.000742650204279
10 -0.001281539593565
11 0.001423776904682
12 -0.000142237311117
13 0.003245389520712
14 -0.000569025051894
15 0.001234327925921
16 -0.012099234896065
17 0.001991633413153
18 0.52938987617539
19 -0.19326805208027
20 0.19763425954432
21 0.011560256759422
22 -0.001894922287763
23 -0.41915196565173
24 -0.39632083301853
25 -0.15647933934214
26 0.000544539571082
27 -0.000017661136786
28 -0.10809533629985
29 0.57539774198819
30 -0.040354811071421
31 -0.000000019088460
32 -0.000000009488150
33 -0.000000230236223
34 0.000000907551487
35 0.000000211899688
 Sym=     21.1
 Ene=       1.6000
 Spin= Alpha
 Occup=    0.000000
1 -0.078327927343395
2 -0.37369092096201
3 0.58931135030585
4 0.13638618729242
5 0.029098742498870
6 0.050561256337828
7 -1.24936853543342
8 -0.26763961463911
9 -0.46608660197314
10 0.46297019504941
11 -0.39128973872448
12 -0.071680456324934
13 0.21232678689018
14 0.26784586075762
15 0.079277792933186
16 0.54201899842925
17 -0.12190192181849
18 0.45872170525556
19 -0.038659120514124
20 0.17131226131797
21 0.54119426211547
22 -0.12170780568576
23 0.40905762812794
24 0.22426257544663
25 0.15276813922439
26 -1.26067848657118
27 0.12704783372298
28 0.16061771565286
29 0.034810083271377
30 0.059288853317536
31 -0.000087834234775
32 -0.000043228220309
33 -0.001258221889634
34 -0.000257275306133
35 0.000269649093549
 Sym=     22.1
 Ene=       1.6033
 Spin= Alpha
 Occup=    0.000000
1 0.000217417006211
2 0.000866689600472
3 -0.001543154388611
4 -0.000175133388612
5 -0.000011134741423
6 0.000303788303546
7 0.000290504688570
8 0.000112915926135
9 0.000267207168916
10 -0.000222729917952
11 -0.000059733040806
12 0.000282462958758
13 -0.000040620068149
14 -0.000288817071152
15 -0.000016483626113
16 0.000248048913154
17 -0.000073343905061
18 -0.000112271028621
19 0.000028025632570
20 -0.000006642693096
21 0.000324590398077
22 -0.000092259019560
23 -0.000093972066038
24 -0.000091916890929
25 -0.000011025724568
26 0.000737087627200
27 -0.000122758953612
28 -0.000076722915249
29 -0.000031860686317
30 0.000044012482140
31 -0.000505672197662
32 0.000150948016120
33 -0.022249818724859
34 -0.000140988400538
35 0.99975211645533
 Sym=     23.1
 Ene=       1.6033
 Spin= Alpha
 Occup=    0.000000
1 -0.000058089658880
2 -0.000300557539822
3 0.000449326149522
4 0.000151797854663
5 0.000032931956234
6 0.000050281211141
7 -0.001395805681987
8 -0.000194308145012
9 -0.000515780276685
10 0.000462770551626
11 -0.000434635401302
12 -0.000028135150323
13 0.000266369664756
14 0.000282821712911
15 0.000124289780458
16 0.000555278203978
17 -0.000126312189242
18 0.000506029285423
19 -0.000066616176905
20 0.000234906386173
21 0.000754587823577
22 -0.000174606580855
23 0.000445631512784
24 0.000210954143274
25 0.000172596317348
26 -0.001334667949871
27 0.000135015677403
28 0.000191741630132
29 -0.000013283098736
30 0.000050740157419
31 -0.000002354045222
32 0.000000480681932
33 0.73360234846458
34 0.67937962757303
35 0.016422676555729
 Sym=     24.1
 Ene=       1.6033
 Spin= Alpha
 Occup=    0.000000
1 0.000025922660308
2 0.000145879237979
3 -0.000206713684512
4 -0.000092341947738
5 -0.000017642596356
6 -0.000028789163582
7 0.000807175044451
8 0.000328242258367
9 0.000296481263135
10 -0.000302090575545
11 0.000305739781154
12 -0.000003649205608
13 -0.000085887573363