 Entering Gaussian System, Link 0=g09
 Input=run.inp
 Output=run.out
 Initial command:
 /soft/gaussian/09-e.01/g09/l1.exe "/blues/gpfs/home/elliott/Packages/PACC/moldriver/rcdriver/rundir/RXN/CH3.H2/MDUSDFXREFXETQ/0_0/2_1/UHFFFAOYSA-N/CH4.H/HXBDELFRWIQQII/0_0/1_2/UHFFFAOYSA-N/2/ezvlpJU/SCANS/R6/02/RUN/OPTI/A00/Gau-40463.inp" -scrdir="/blues/gpfs/home/elliott/Packages/PACC/moldriver/rcdriver/rundir/RXN/CH3.H2/MDUSDFXREFXETQ/0_0/2_1/UHFFFAOYSA-N/CH4.H/HXBDELFRWIQQII/0_0/1_2/UHFFFAOYSA-N/2/ezvlpJU/SCANS/R6/02/RUN/OPTI/A00/"
 Entering Link 1 = /soft/gaussian/09-e.01/g09/l1.exe PID=     40464.
  
 Copyright (c) 1988,1990,1992,1993,1995,1998,2003,2009,2015,
            Gaussian, Inc.  All Rights Reserved.
  
 This is part of the Gaussian(R) 09 program.  It is based on
 the Gaussian(R) 03 system (copyright 2003, Gaussian, Inc.),
 the Gaussian(R) 98 system (copyright 1998, Gaussian, Inc.),
 the Gaussian(R) 94 system (copyright 1995, Gaussian, Inc.),
 the Gaussian 92(TM) system (copyright 1992, Gaussian, Inc.),
 the Gaussian 90(TM) system (copyright 1990, Gaussian, Inc.),
 the Gaussian 88(TM) system (copyright 1988, Gaussian, Inc.),
 the Gaussian 86(TM) system (copyright 1986, Carnegie Mellon
 University), and the Gaussian 82(TM) system (copyright 1983,
 Carnegie Mellon University). Gaussian is a federally registered
 trademark of Gaussian, Inc.
  
 This software contains proprietary and confidential information,
 including trade secrets, belonging to Gaussian, Inc.
  
 This software is provided under written license and may be
 used, copied, transmitted, or stored only in accord with that
 written license.
  
 The following legend is applicable only to US Government
 contracts under FAR:
  
                    RESTRICTED RIGHTS LEGEND
  
 Use, reproduction and disclosure by the US Government is
 subject to restrictions as set forth in subparagraphs (a)
 and (c) of the Commercial Computer Software - Restricted
 Rights clause in FAR 52.227-19.
  
 Gaussian, Inc.
 340 Quinnipiac St., Bldg. 40, Wallingford CT 06492
  
  
 ---------------------------------------------------------------
 Warning -- This program may not be used in any manner that
 competes with the business of Gaussian, Inc. or will provide
 assistance to any competitor of Gaussian, Inc.  The licensee
 of this program is prohibited from giving any competitor of
 Gaussian, Inc. access to this program.  By using this program,
 the user acknowledges that Gaussian, Inc. is engaged in the
 business of creating and licensing software in the field of
 computational chemistry and represents and warrants to the
 licensee that it is not a competitor of Gaussian, Inc. and that
 it will not use this program in any manner prohibited above.
 ---------------------------------------------------------------
  

 Cite this work as:
 Gaussian 09, Revision E.01,
 M. J. Frisch, G. W. Trucks, H. B. Schlegel, G. E. Scuseria, 
 M. A. Robb, J. R. Cheeseman, G. Scalmani, V. Barone, B. Mennucci, 
 G. A. Petersson, H. Nakatsuji, M. Caricato, X. Li, H. P. Hratchian, 
 A. F. Izmaylov, J. Bloino, G. Zheng, J. L. Sonnenberg, M. Hada, 
 M. Ehara, K. Toyota, R. Fukuda, J. Hasegawa, M. Ishida, T. Nakajima, 
 Y. Honda, O. Kitao, H. Nakai, T. Vreven, J. A. Montgomery, Jr., 
 J. E. Peralta, F. Ogliaro, M. Bearpark, J. J. Heyd, E. Brothers, 
 K. N. Kudin, V. N. Staroverov, T. Keith, R. Kobayashi, J. Normand, 
 K. Raghavachari, A. Rendell, J. C. Burant, S. S. Iyengar, J. Tomasi, 
 M. Cossi, N. Rega, J. M. Millam, M. Klene, J. E. Knox, J. B. Cross, 
 V. Bakken, C. Adamo, J. Jaramillo, R. Gomperts, R. E. Stratmann, 
 O. Yazyev, A. J. Austin, R. Cammi, C. Pomelli, J. W. Ochterski, 
 R. L. Martin, K. Morokuma, V. G. Zakrzewski, G. A. Voth, 
 P. Salvador, J. J. Dannenberg, S. Dapprich, A. D. Daniels, 
 O. Farkas, J. B. Foresman, J. V. Ortiz, J. Cioslowski, 
 and D. J. Fox, Gaussian, Inc., Wallingford CT, 2013.
 
 ******************************************
 Gaussian 09:  ES64L-G09RevE.01 30-Nov-2015
                23-Aug-2019 
 ******************************************
 %mem=20GB
 %NProcShared=10
 Will use up to   10 processors via shared memory.
 -----------------------------------------------------
 #P b3lyp/6-31g* # SCF=(xqc) # POpt=() # int=ultrafine
 -----------------------------------------------------
 1/10=7,14=-1,26=4,38=1/1,3;
 2/12=2,17=6,18=5,29=3,40=1/2;
 3/5=1,6=6,7=1,11=2,16=1,25=1,30=1,71=1,74=-5,75=-5/1,2,3;
 4//1;
 5/5=2,8=3,13=1,38=5/2,8;
 6/7=2,8=2,9=2,10=2,28=1/1;
 7/29=1/1,2,3,16;
 1/10=7,14=-1,26=4/3(2);
 2/29=3/2;
 99//99;
 2/29=3/2;
 3/5=1,6=6,7=1,11=2,16=1,25=1,30=1,71=1,74=-5,75=-5/1,2,3;
 4/5=5,16=3,69=1/1;
 5/5=2,8=3,13=1,38=5/2,8;
 7//1,2,3,16;
 1/14=-1,26=4/3(-5);
 2/29=3/2;
 6/7=2,8=2,9=2,10=2,19=2,28=1/1;
 99/9=1/99;
 Leave Link    1 at Fri Aug 23 16:08:07 2019, MaxMem=  2684354560 cpu:         0.6
 (Enter /soft/gaussian/09-e.01/g09/l101.exe)
 --------
 comment:
 --------
 Symbolic Z-matrix:
 Charge =  0 Multiplicity = 2
 C
 H                    1    R1
 H                    1    R2       2    A2
 H                    1    R3       2    A3       3    D3       0
 H                    1    R4       2    A4       3    D4       0
 X                    5    R5       1    A5       2    D5       0
 H                    5    R6       6    A6       1    D6       0
       Variables:
  R1                    1.0922                   
  R2                    1.0922                   
  A2                  109.471                    
  R3                    1.0922                   
  A3                  109.471                    
  D3                  120.                       
  R4                    1.0922                   
  A4                  109.471                    
  D4                  240.                       
  D6                  180.                       
  A6                   85.                       
       Constants:
  R5                    1.                       
  A5                   90.                       
  D5                  180.                       
  R6                    1.02571                  
 
     3 tetrahedral angles replaced.
 NAtoms=      6 NQM=        6 NQMF=       0 NMMI=      0 NMMIF=      0
                NMic=       0 NMicF=      0.
    3 tetrahedral angles replaced.
                    Isotopes and Nuclear Properties:
 (Nuclear quadrupole moments (NQMom) in fm**2, nuclear magnetic moments (NMagM)
  in nuclear magnetons)

  Atom         1           2           3           4           5           6
 IAtWgt=          12           1           1           1           1           1
 AtmWgt=  12.0000000   1.0078250   1.0078250   1.0078250   1.0078250   1.0078250
 NucSpn=           0           1           1           1           1           1
 AtZEff=   0.0000000   0.0000000   0.0000000   0.0000000   0.0000000   0.0000000
 NQMom=    0.0000000   0.0000000   0.0000000   0.0000000   0.0000000   0.0000000
 NMagM=    0.0000000   2.7928460   2.7928460   2.7928460   2.7928460   2.7928460
 AtZNuc=   6.0000000   1.0000000   1.0000000   1.0000000   1.0000000   1.0000000
 Leave Link  101 at Fri Aug 23 16:08:07 2019, MaxMem=  2684354560 cpu:         0.6
 (Enter /soft/gaussian/09-e.01/g09/l103.exe)

 GradGradGradGradGradGradGradGradGradGradGradGradGradGradGradGradGradGrad
 Berny optimization.
 Initialization pass.
                       ----------------------------
                       !    Initial Parameters    !
                       ! (Angstroms and Degrees)  !
 ----------------------                            ----------------------
 !      Name          Value   Derivative information (Atomic Units)     !
 ------------------------------------------------------------------------
 !       R1          1.0922   estimate D2E/DX2                          !
 !       R2          1.0922   estimate D2E/DX2                          !
 !       A2        109.4712   estimate D2E/DX2                          !
 !       R3          1.0922   estimate D2E/DX2                          !
 !       A3        109.4712   estimate D2E/DX2                          !
 !       D3        120.0      estimate D2E/DX2                          !
 !       R4          1.0922   estimate D2E/DX2                          !
 !       A4        109.4712   estimate D2E/DX2                          !
 !       D4        240.0      estimate D2E/DX2                          !
 !       D6        180.0      estimate D2E/DX2                          !
 !       A6         85.0      estimate D2E/DX2                          !
 !       R5          1.0      Frozen                                    !
 !       A5         90.0      Frozen                                    !
 !       D5        180.0      Frozen                                    !
 !       R6          1.0257   Frozen                                    !
 ------------------------------------------------------------------------
 Trust Radius=3.00D-01 FncErr=1.00D-07 GrdErr=1.00D-06
 Number of steps in this run=     25 maximum allowed number of steps=    100.
 GradGradGradGradGradGradGradGradGradGradGradGradGradGradGradGradGradGrad

 Leave Link  103 at Fri Aug 23 16:08:07 2019, MaxMem=  2684354560 cpu:         0.1
 (Enter /soft/gaussian/09-e.01/g09/l202.exe)
 ---------------------------------------------------------------------------------------------------
                            Z-MATRIX (ANGSTROMS AND DEGREES)
   CD    Cent   Atom    N1       Length/X        N2       Alpha/Y        N3        Beta/Z          J
 ---------------------------------------------------------------------------------------------------
      1      1  C 
      2      2  H        1   1.092201(     1)
      3      3  H        1   1.092201(     2)      2  109.471(     7)
      4      4  H        1   1.092201(     3)      2  109.471(     8)      3  120.000(    12)      0
      5      5  H        1   1.092201(     4)      2  109.471(     9)      3  240.000(    13)      0
      6         X        5   1.000000(     5)      1   90.000(    10)      2  180.000(    14)      0
      7      6  H        5   1.025714(     6)      6   85.000(    11)      1  180.000(    15)      0
 ---------------------------------------------------------------------------------------------------
                         Z-Matrix orientation:                         
 ---------------------------------------------------------------------
 Center     Atomic      Atomic             Coordinates (Angstroms)
 Number     Number       Type             X           Y           Z
 ---------------------------------------------------------------------
      1          6           0        0.000000    0.000000    0.000000
      2          1           0        0.000000    0.000000    1.092201
      3          1           0        1.029737    0.000000   -0.364067
      4          1           0       -0.514868   -0.891778   -0.364067
      5          1           0       -0.514868    0.891778   -0.364067
      6         -1           0       -0.348202    0.603103   -1.306876
      7          1           0       -0.981655    1.700277   -0.788955
 ---------------------------------------------------------------------
                    Distance matrix (angstroms):
                    1          2          3          4          5
     1  C    0.000000
     2  H    1.092201   0.000000
     3  H    1.092201   1.783557   0.000000
     4  H    1.092201   1.783557   1.783557   0.000000
     5  H    1.092201   1.783557   1.783557   1.783557   0.000000
     6  X    1.480845   2.498109   1.775201   1.775201   1.000000
     7  H    2.115901   2.719069   2.667802   2.667802   1.025714
                    6          7
     6  X    0.000000
     7  H    1.368684   0.000000
 This structure is nearly, but not quite of a higher symmetry.
 Consider Symm=Loose if the higher symmetry is desired.
 Stoichiometry    CH5(2)
 Framework group  CS[SG(CH3),X(H2)]
 Deg. of freedom     8
 Full point group                 CS      NOp   2
 Largest Abelian subgroup         CS      NOp   2
 Largest concise Abelian subgroup CS      NOp   2
                         Standard orientation:                         
 ---------------------------------------------------------------------
 Center     Atomic      Atomic             Coordinates (Angstroms)
 Number     Number       Type             X           Y           Z
 ---------------------------------------------------------------------
      1          6           0        0.000000    0.192355    0.000000
      2          1           0        1.013436    0.599603    0.000000
      3          1           0       -0.529791    0.534343    0.891778
      4          1           0       -0.529791    0.534343   -0.891778
      5          1           0        0.046146   -0.898871   -0.000000
      6          1           0       -0.000000   -1.923547   -0.000000
 ---------------------------------------------------------------------
 Rotational constants (GHZ):    157.6370072     67.8255561     67.8255561
 Leave Link  202 at Fri Aug 23 16:08:07 2019, MaxMem=  2684354560 cpu:         0.1
 (Enter /soft/gaussian/09-e.01/g09/l301.exe)
 Standard basis: 6-31G(d) (6D, 7F)
 Ernie: Thresh=  0.10000D-02 Tol=  0.10000D-05 Strict=F.
 There are    19 symmetry adapted cartesian basis functions of A'  symmetry.
 There are     6 symmetry adapted cartesian basis functions of A"  symmetry.
 There are    19 symmetry adapted basis functions of A'  symmetry.
 There are     6 symmetry adapted basis functions of A"  symmetry.
    25 basis functions,    48 primitive gaussians,    25 cartesian basis functions
     6 alpha electrons        5 beta electrons
       nuclear repulsion energy        16.0161288757 Hartrees.
 IExCor=  402 DFT=T Ex+Corr=B3LYP ExCW=0 ScaHFX=  0.200000
 ScaDFX=  0.800000  0.720000  1.000000  0.810000 ScalE2=  1.000000  1.000000
 IRadAn=      5 IRanWt=     -1 IRanGd=            0 ICorTp=0 IEmpDi=  4
 NAtoms=    6 NActive=    6 NUniq=    5 SFac= 1.44D+00 NAtFMM=   60 NAOKFM=F Big=F
 Integral buffers will be    131072 words long.
 Raffenetti 2 integral format.
 Two-electron integral symmetry is turned on.
 Leave Link  301 at Fri Aug 23 16:08:07 2019, MaxMem=  2684354560 cpu:         0.7
 (Enter /soft/gaussian/09-e.01/g09/l302.exe)
 NPDir=0 NMtPBC=     1 NCelOv=     1 NCel=       1 NClECP=     1 NCelD=      1
         NCelK=      1 NCelE2=     1 NClLst=     1 CellRange=     0.0.
 One-electron integrals computed using PRISM.
 One-electron integral symmetry used in STVInt
 NBasis=    25 RedAO= T EigKep=  1.38D-02  NBF=    19     6
 NBsUse=    25 1.00D-06 EigRej= -1.00D+00 NBFU=    19     6
 Precomputing XC quadrature grid using
 IXCGrd= 4 IRadAn=           5 IRanWt=          -1 IRanGd=           0 AccXCQ= 0.00D+00.
 Generated NRdTot=       0 NPtTot=           0 NUsed=           0 NTot=          32
 NSgBfM=    25    25    25    25    25 MxSgAt=     6 MxSgA2=     6.
 Leave Link  302 at Fri Aug 23 16:08:07 2019, MaxMem=  2684354560 cpu:         1.7
 (Enter /soft/gaussian/09-e.01/g09/l303.exe)
 DipDrv:  MaxL=1.
 Leave Link  303 at Fri Aug 23 16:08:07 2019, MaxMem=  2684354560 cpu:         0.2
 (Enter /soft/gaussian/09-e.01/g09/l401.exe)
 ExpMin= 1.61D-01 ExpMax= 3.05D+03 ExpMxC= 4.57D+02 IAcc=3 IRadAn=         5 AccDes= 0.00D+00
 Harris functional with IExCor=  402 and IRadAn=       5 diagonalized for initial guess.
 HarFok:  IExCor=  402 AccDes= 0.00D+00 IRadAn=         5 IDoV= 1 UseB2=F ITyADJ=14
 ICtDFT=  3500011 ScaDFX=  1.000000  1.000000  1.000000  1.000000
 FoFCou: FMM=F IPFlag=           0 FMFlag=      100000 FMFlg1=           0
         NFxFlg=           0 DoJE=T BraDBF=F KetDBF=T FulRan=T
         wScrn=  0.000000 ICntrl=     500 IOpCl=  0 I1Cent=   200000004 NGrid=           0
         NMat0=    1 NMatS0=      1 NMatT0=    0 NMatD0=    1 NMtDS0=    0 NMtDT0=    0
 Petite list used in FoFCou.
 Harris En= -41.0096298153201    
 JPrj=0 DoOrth=F DoCkMO=F.
 Initial guess orbital symmetries:
 Alpha Orbitals:
       Occupied  (A') (A') (A') (A") (A') (A')
       Virtual   (A') (A') (A") (A') (A') (A") (A') (A') (A") (A')
                 (A') (A') (A') (A") (A') (A") (A') (A') (A')
 Beta  Orbitals:
       Occupied  (A') (A') (A') (A") (A')
       Virtual   (A') (A') (A') (A") (A') (A') (A") (A') (A') (A")
                 (A') (A') (A') (A') (A") (A') (A") (A') (A') (A')
 The electronic state of the initial guess is 2-A'.
 Initial guess <Sx>= 0.0000 <Sy>= 0.0000 <Sz>= 0.5000 <S**2>= 0.7500 S= 0.5000
 Leave Link  401 at Fri Aug 23 16:08:07 2019, MaxMem=  2684354560 cpu:         1.9
 (Enter /soft/gaussian/09-e.01/g09/l502.exe)
 UHF open shell SCF:
 Using DIIS extrapolation, IDIIS=  1040.
 Integral symmetry usage will be decided dynamically.
 Keep R1 and R2 ints in memory in symmetry-blocked form, NReq=929304.
 IVT=        8311 IEndB=        8311 NGot=  2684354560 MDV=  2684287457
 LenX=  2684287457 LenY=  2684286391
 Requested convergence on RMS density matrix=1.00D-08 within  64 cycles.
 Requested convergence on MAX density matrix=1.00D-06.
 Requested convergence on             energy=1.00D-06.
 No special actions if energy rises.
 FoFCou: FMM=F IPFlag=           0 FMFlag=           0 FMFlg1=           0
         NFxFlg=           0 DoJE=F BraDBF=F KetDBF=F FulRan=T
         wScrn=  0.000000 ICntrl=     600 IOpCl=  0 I1Cent=           0 NGrid=           0
         NMat0=    1 NMatS0=    325 NMatT0=    0 NMatD0=    1 NMtDS0=    0 NMtDT0=    0
 Petite list used in FoFCou.
 Integral accuracy reduced to 1.0D-05 until final iterations.

 Cycle   1  Pass 0  IDiag  1:
 E= -40.9095535527245    
 DIIS: error= 7.15D-02 at cycle   1 NSaved=   1.
 NSaved= 1 IEnMin= 1 EnMin= -40.9095535527245     IErMin= 1 ErrMin= 7.15D-02
 ErrMax= 7.15D-02  0.00D+00 EMaxC= 1.00D-01 BMatC= 3.32D-01 BMatP= 3.32D-01
 IDIUse=3 WtCom= 2.85D-01 WtEn= 7.15D-01
 Coeff-Com:  0.100D+01
 Coeff-En:   0.100D+01
 Coeff:      0.100D+01
 Gap=     0.380 Goal=   None    Shift=    0.000
 Gap=     0.240 Goal=   None    Shift=    0.000
 GapD=    0.240 DampG=1.000 DampE=0.500 DampFc=0.5000 IDamp=-1.
 Damping current iteration by 5.00D-01
 RMSDP=2.85D-02 MaxDP=2.87D-01              OVMax= 2.37D-01

 Cycle   2  Pass 0  IDiag  1:
 E= -40.9492709403264     Delta-E=       -0.039717387602 Rises=F Damp=T
 DIIS: error= 1.30D-02 at cycle   2 NSaved=   2.
 NSaved= 2 IEnMin= 2 EnMin= -40.9492709403264     IErMin= 2 ErrMin= 1.30D-02
 ErrMax= 1.30D-02  0.00D+00 EMaxC= 1.00D-01 BMatC= 1.05D-02 BMatP= 3.32D-01
 IDIUse=3 WtCom= 8.70D-01 WtEn= 1.30D-01
 Coeff-Com:  0.912D-01 0.909D+00
 Coeff-En:   0.154D+00 0.846D+00
 Coeff:      0.994D-01 0.901D+00
 Gap=     0.359 Goal=   None    Shift=    0.000
 Gap=     0.320 Goal=   None    Shift=    0.000
 RMSDP=3.52D-03 MaxDP=6.82D-02 DE=-3.97D-02 OVMax= 1.51D-01

 Cycle   3  Pass 0  IDiag  1:
 E= -40.9999952970552     Delta-E=       -0.050724356729 Rises=F Damp=F
 DIIS: error= 1.75D-03 at cycle   3 NSaved=   3.
 NSaved= 3 IEnMin= 3 EnMin= -40.9999952970552     IErMin= 3 ErrMin= 1.75D-03
 ErrMax= 1.75D-03  0.00D+00 EMaxC= 1.00D-01 BMatC= 1.80D-04 BMatP= 1.05D-02
 IDIUse=3 WtCom= 9.83D-01 WtEn= 1.75D-02
 Coeff-Com: -0.765D-03-0.471D-01 0.105D+01
 Coeff-En:   0.000D+00 0.000D+00 0.100D+01
 Coeff:     -0.752D-03-0.463D-01 0.105D+01
 Gap=     0.354 Goal=   None    Shift=    0.000
 Gap=     0.329 Goal=   None    Shift=    0.000
 RMSDP=9.76D-04 MaxDP=1.13D-02 DE=-5.07D-02 OVMax= 5.69D-03

 Cycle   4  Pass 0  IDiag  1:
 E= -41.0000903601358     Delta-E=       -0.000095063081 Rises=F Damp=F
 DIIS: error= 3.79D-04 at cycle   4 NSaved=   4.
 NSaved= 4 IEnMin= 4 EnMin= -41.0000903601358     IErMin= 4 ErrMin= 3.79D-04
 ErrMax= 3.79D-04  0.00D+00 EMaxC= 1.00D-01 BMatC= 9.23D-06 BMatP= 1.80D-04
 IDIUse=3 WtCom= 9.96D-01 WtEn= 3.79D-03
 Coeff-Com: -0.236D-02-0.739D-02-0.751D-01 0.108D+01
 Coeff-En:   0.000D+00 0.000D+00 0.000D+00 0.100D+01
 Coeff:     -0.235D-02-0.737D-02-0.748D-01 0.108D+01
 Gap=     0.353 Goal=   None    Shift=    0.000
 Gap=     0.331 Goal=   None    Shift=    0.000
 RMSDP=1.35D-04 MaxDP=9.84D-04 DE=-9.51D-05 OVMax= 2.48D-03

 Cycle   5  Pass 0  IDiag  1:
 E= -41.0000958976255     Delta-E=       -0.000005537490 Rises=F Damp=F
 DIIS: error= 1.08D-04 at cycle   5 NSaved=   5.
 NSaved= 5 IEnMin= 5 EnMin= -41.0000958976255     IErMin= 5 ErrMin= 1.08D-04
 ErrMax= 1.08D-04  0.00D+00 EMaxC= 1.00D-01 BMatC= 7.52D-07 BMatP= 9.23D-06
 IDIUse=3 WtCom= 9.99D-01 WtEn= 1.08D-03
 Coeff-Com: -0.834D-03 0.275D-02-0.551D-01 0.493D-01 0.100D+01
 Coeff-En:   0.000D+00 0.000D+00 0.000D+00 0.000D+00 0.100D+01
 Coeff:     -0.833D-03 0.275D-02-0.551D-01 0.492D-01 0.100D+01
 Gap=     0.353 Goal=   None    Shift=    0.000
 Gap=     0.331 Goal=   None    Shift=    0.000
 RMSDP=5.00D-05 MaxDP=5.64D-04 DE=-5.54D-06 OVMax= 3.19D-04

 Cycle   6  Pass 0  IDiag  1:
 E= -41.0000962438404     Delta-E=       -0.000000346215 Rises=F Damp=F
 DIIS: error= 1.13D-05 at cycle   6 NSaved=   6.
 NSaved= 6 IEnMin= 6 EnMin= -41.0000962438404     IErMin= 6 ErrMin= 1.13D-05
 ErrMax= 1.13D-05  0.00D+00 EMaxC= 1.00D-01 BMatC= 1.53D-08 BMatP= 7.52D-07
 IDIUse=1 WtCom= 1.00D+00 WtEn= 0.00D+00
 Coeff-Com:  0.206D-03-0.339D-03 0.109D-01-0.288D-01-0.186D+00 0.120D+01
 Coeff:      0.206D-03-0.339D-03 0.109D-01-0.288D-01-0.186D+00 0.120D+01
 Gap=     0.353 Goal=   None    Shift=    0.000
 Gap=     0.331 Goal=   None    Shift=    0.000
 RMSDP=6.76D-06 MaxDP=4.46D-05 DE=-3.46D-07 OVMax= 6.53D-05

 Initial convergence to 1.0D-05 achieved.  Increase integral accuracy.
 Cycle   7  Pass 1  IDiag  1:
 E= -41.0000951585684     Delta-E=        0.000001085272 Rises=F Damp=F
 DIIS: error= 3.60D-06 at cycle   1 NSaved=   1.
 NSaved= 1 IEnMin= 1 EnMin= -41.0000951585684     IErMin= 1 ErrMin= 3.60D-06
 ErrMax= 3.60D-06  0.00D+00 EMaxC= 1.00D-01 BMatC= 1.55D-09 BMatP= 1.55D-09
 IDIUse=1 WtCom= 1.00D+00 WtEn= 0.00D+00
 Coeff-Com:  0.100D+01
 Coeff:      0.100D+01
 Gap=     0.353 Goal=   None    Shift=    0.000
 Gap=     0.331 Goal=   None    Shift=    0.000
 RMSDP=6.76D-06 MaxDP=4.46D-05 DE= 1.09D-06 OVMax= 1.81D-05

 Cycle   8  Pass 1  IDiag  1:
 E= -41.0000951594003     Delta-E=       -0.000000000832 Rises=F Damp=F
 DIIS: error= 2.06D-06 at cycle   2 NSaved=   2.
 NSaved= 2 IEnMin= 2 EnMin= -41.0000951594003     IErMin= 2 ErrMin= 2.06D-06
 ErrMax= 2.06D-06  0.00D+00 EMaxC= 1.00D-01 BMatC= 3.12D-10 BMatP= 1.55D-09
 IDIUse=1 WtCom= 1.00D+00 WtEn= 0.00D+00
 Coeff-Com:  0.139D+00 0.861D+00
 Coeff:      0.139D+00 0.861D+00
 Gap=     0.353 Goal=   None    Shift=    0.000
 Gap=     0.331 Goal=   None    Shift=    0.000
 RMSDP=5.63D-07 MaxDP=4.83D-06 DE=-8.32D-10 OVMax= 7.73D-06

 Cycle   9  Pass 1  IDiag  1:
 E= -41.0000951595411     Delta-E=       -0.000000000141 Rises=F Damp=F
 DIIS: error= 1.44D-06 at cycle   3 NSaved=   3.
 NSaved= 3 IEnMin= 3 EnMin= -41.0000951595411     IErMin= 3 ErrMin= 1.44D-06
 ErrMax= 1.44D-06  0.00D+00 EMaxC= 1.00D-01 BMatC= 9.40D-11 BMatP= 3.12D-10
 IDIUse=1 WtCom= 1.00D+00 WtEn= 0.00D+00
 Coeff-Com: -0.164D+00 0.180D+00 0.984D+00
 Coeff:     -0.164D+00 0.180D+00 0.984D+00
 Gap=     0.353 Goal=   None    Shift=    0.000
 Gap=     0.331 Goal=   None    Shift=    0.000
 RMSDP=4.55D-07 MaxDP=4.17D-06 DE=-1.41D-10 OVMax= 4.75D-06

 Cycle  10  Pass 1  IDiag  1:
 E= -41.0000951595816     Delta-E=       -0.000000000041 Rises=F Damp=F
 DIIS: error= 8.03D-07 at cycle   4 NSaved=   4.
 NSaved= 4 IEnMin= 4 EnMin= -41.0000951595816     IErMin= 4 ErrMin= 8.03D-07
 ErrMax= 8.03D-07  0.00D+00 EMaxC= 1.00D-01 BMatC= 3.37D-11 BMatP= 9.40D-11
 IDIUse=1 WtCom= 1.00D+00 WtEn= 0.00D+00
 Coeff-Com: -0.113D+00-0.600D-01 0.533D+00 0.640D+00
 Coeff:     -0.113D+00-0.600D-01 0.533D+00 0.640D+00
 Gap=     0.353 Goal=   None    Shift=    0.000
 Gap=     0.331 Goal=   None    Shift=    0.000
 RMSDP=1.27D-07 MaxDP=1.28D-06 DE=-4.05D-11 OVMax= 1.89D-06

 Cycle  11  Pass 1  IDiag  1:
 E= -41.0000951595918     Delta-E=       -0.000000000010 Rises=F Damp=F
 DIIS: error= 2.62D-08 at cycle   5 NSaved=   5.
 NSaved= 5 IEnMin= 5 EnMin= -41.0000951595918     IErMin= 5 ErrMin= 2.62D-08
 ErrMax= 2.62D-08  0.00D+00 EMaxC= 1.00D-01 BMatC= 5.10D-14 BMatP= 3.37D-11
 IDIUse=1 WtCom= 1.00D+00 WtEn= 0.00D+00
 Coeff-Com:  0.171D-01 0.213D-02-0.797D-01-0.782D-01 0.114D+01
 Coeff:      0.171D-01 0.213D-02-0.797D-01-0.782D-01 0.114D+01
 Gap=     0.353 Goal=   None    Shift=    0.000
 Gap=     0.331 Goal=   None    Shift=    0.000
 RMSDP=1.04D-08 MaxDP=9.29D-08 DE=-1.02D-11 OVMax= 1.03D-07

 Cycle  12  Pass 1  IDiag  1:
 E= -41.0000951595919     Delta-E=       -0.000000000000 Rises=F Damp=F
 DIIS: error= 6.44D-09 at cycle   6 NSaved=   6.
 NSaved= 6 IEnMin= 6 EnMin= -41.0000951595919     IErMin= 6 ErrMin= 6.44D-09
 ErrMax= 6.44D-09  0.00D+00 EMaxC= 1.00D-01 BMatC= 3.00D-15 BMatP= 5.10D-14
 IDIUse=1 WtCom= 1.00D+00 WtEn= 0.00D+00
 Coeff-Com:  0.562D-02 0.267D-02-0.256D-01-0.332D-01 0.815D-01 0.969D+00
 Coeff:      0.562D-02 0.267D-02-0.256D-01-0.332D-01 0.815D-01 0.969D+00
 Gap=     0.353 Goal=   None    Shift=    0.000
 Gap=     0.331 Goal=   None    Shift=    0.000
 RMSDP=2.39D-09 MaxDP=2.32D-08 DE=-5.68D-14 OVMax= 2.26D-08

 SCF Done:  E(UB3LYP) =  -41.0000951596     A.U. after   12 cycles
            NFock= 12  Conv=0.24D-08     -V/T= 2.0066
 <Sx>= 0.0000 <Sy>= 0.0000 <Sz>= 0.5000 <S**2>= 0.7532 S= 0.5016
 <L.S>= 0.000000000000E+00
 KE= 4.073138627390D+01 PE=-1.260276759043D+02 EE= 2.828006559507D+01
 Annihilation of the first spin contaminant:
 S**2 before annihilation     0.7532,   after     0.7500
 Leave Link  502 at Fri Aug 23 16:08:08 2019, MaxMem=  2684354560 cpu:         4.2
 (Enter /soft/gaussian/09-e.01/g09/l508.exe)
 QCSCF skips out because SCF is already converged.
 Leave Link  508 at Fri Aug 23 16:08:08 2019, MaxMem=  2684354560 cpu:         0.0
 (Enter /soft/gaussian/09-e.01/g09/l601.exe)
 Copying SCF densities to generalized density rwf, IOpCl= 1 IROHF=0.

 **********************************************************************

            Population analysis using the SCF density.

 **********************************************************************

 Orbital symmetries:
 Alpha Orbitals:
       Occupied  (A') (A') (A') (A') (A") (A')
       Virtual   (A') (A') (A") (A') (A') (A") (A') (A') (A') (A")
                 (A') (A') (A') (A") (A') (A") (A') (A') (A')
 Beta  Orbitals:
       Occupied  (A') (A') (A') (A") (A')
       Virtual   (A') (A') (A') (A") (A') (A") (A') (A') (A') (A")
                 (A') (A') (A') (A') (A") (A') (A") (A') (A') (A')
 The electronic state is 2-A'.
 Alpha  occ. eigenvalues --  -10.17861  -0.71804  -0.47448  -0.40254  -0.40250
 Alpha  occ. eigenvalues --   -0.22990
 Alpha virt. eigenvalues --    0.12346   0.16563   0.16581   0.26547   0.52118
 Alpha virt. eigenvalues --    0.52150   0.54304   0.72754   0.88544   0.88560
 Alpha virt. eigenvalues --    0.94662   0.97964   1.25111   1.63360   1.63420
 Alpha virt. eigenvalues --    2.22702   2.22708   2.24307   4.20339
  Beta  occ. eigenvalues --  -10.17221  -0.70158  -0.43465  -0.39845  -0.39839
  Beta virt. eigenvalues --   -0.06771   0.12730   0.16968   0.16980   0.28967
  Beta virt. eigenvalues --    0.52276   0.52278   0.56524   0.81446   0.89095
  Beta virt. eigenvalues --    0.89104   0.95499   1.00614   1.26644   1.65108
  Beta virt. eigenvalues --    1.65154   2.23764   2.23787   2.26567   4.21590
          Condensed to atoms (all electrons):
               1          2          3          4          5          6
     1  C    5.270608   0.373468   0.377024   0.377024   0.313570  -0.165073
     2  H    0.373468   0.528572  -0.024454  -0.024454  -0.025301   0.005020
     3  H    0.377024  -0.024454   0.528198  -0.024543  -0.028631   0.004979
     4  H    0.377024  -0.024454  -0.024543   0.528198  -0.028631   0.004979
     5  H    0.313570  -0.025301  -0.028631  -0.028631   0.625474   0.075496
     6  H   -0.165073   0.005020   0.004979   0.004979   0.075496   1.098007
          Atomic-Atomic Spin Densities.
               1          2          3          4          5          6
     1  C    0.508601  -0.019872  -0.018282  -0.018282   0.050435  -0.187289
     2  H   -0.019872   0.000366   0.003451   0.003451   0.001510   0.007210
     3  H   -0.018282   0.003451  -0.003130   0.003150   0.001973   0.007001
     4  H   -0.018282   0.003451   0.003150  -0.003130   0.001973   0.007001
     5  H    0.050435   0.001510   0.001973   0.001973  -0.113921  -0.044941
     6  H   -0.187289   0.007210   0.007001   0.007001  -0.044941   1.014238
 Mulliken charges and spin densities:
               1          2
     1  C   -0.546621   0.315312
     2  H    0.167149  -0.003884
     3  H    0.167428  -0.005838
     4  H    0.167428  -0.005838
     5  H    0.068024  -0.102971
     6  H   -0.023408   0.803219
 Sum of Mulliken charges =  -0.00000   1.00000
 Mulliken charges and spin densities with hydrogens summed into heavy atoms:
               1          2
     1  C   -0.000000   1.000000
 Electronic spatial extent (au):  <R**2>=             53.7534
 Charge=             -0.0000 electrons
 Dipole moment (field-independent basis, Debye):
    X=             -0.0049    Y=              0.6853    Z=              0.0000  Tot=              0.6853
 Quadrupole moment (field-independent basis, Debye-Ang):
   XX=             -9.3475   YY=            -11.1371   ZZ=             -9.3473
   XY=              0.0080   XZ=             -0.0000   YZ=              0.0000
 Traceless Quadrupole moment (field-independent basis, Debye-Ang):
   XX=              0.5964   YY=             -1.1931   ZZ=              0.5966
   XY=              0.0080   XZ=             -0.0000   YZ=              0.0000
 Octapole moment (field-independent basis, Debye-Ang**2):
  XXX=              0.5342  YYY=              6.1059  ZZZ=              0.0000  XYY=              0.0452
  XXY=              1.3535  XXZ=              0.0000  XZZ=             -0.6021  YZZ=              1.3062
  YYZ=              0.0000  XYZ=             -0.0000
 Hexadecapole moment (field-independent basis, Debye-Ang**3):
 XXXX=            -16.1382 YYYY=            -57.1739 ZZZZ=            -16.0779 XXXY=              0.4595
 XXXZ=              0.0000 YYYX=              0.0370 YYYZ=             -0.0000 ZZZX=             -0.0000
 ZZZY=             -0.0000 XXYY=            -10.7619 XXZZ=             -5.3321 YYZZ=            -10.8347
 XXYZ=             -0.0000 YYXZ=             -0.0000 ZZXY=             -0.4371
 N-N= 1.601612887570D+01 E-N=-1.260276758362D+02  KE= 4.073138627390D+01
 Symmetry A'   KE= 3.879518649650D+01
 Symmetry A"   KE= 1.936199777410D+00
                          Isotropic Fermi Contact Couplings
        Atom                 a.u.       MegaHertz       Gauss      10(-4) cm-1
     1  C(13)              0.18121     203.71142      72.68930      67.95082
     2  H(1)              -0.00194      -8.66458      -3.09174      -2.89019
     3  H(1)              -0.00279     -12.45809      -4.44536      -4.15557
     4  H(1)              -0.00279     -12.45809      -4.44536      -4.15557
     5  H(1)              -0.01734     -77.50871     -27.65703     -25.85412
     6  H(1)               0.25978    1161.18585     414.33997     387.32991
 --------------------------------------------------------
       Center         ----  Spin Dipole Couplings  ----
                      3XX-RR        3YY-RR        3ZZ-RR
 --------------------------------------------------------
     1   Atom       -0.195385      0.390573     -0.195188
     2   Atom        0.017089      0.007903     -0.024993
     3   Atom       -0.013705      0.006866      0.006840
     4   Atom       -0.013705      0.006866      0.006840
     5   Atom       -0.116812      0.233944     -0.117132
     6   Atom        0.009663     -0.019397      0.009734
 --------------------------------------------------------
                        XY            XZ            YZ
 --------------------------------------------------------
     1   Atom       -0.018619     -0.000000      0.000000
     2   Atom        0.017995     -0.000000      0.000000
     3   Atom       -0.009581     -0.019171      0.015121
     4   Atom       -0.009581      0.019171     -0.015121
     5   Atom        0.000755     -0.000000      0.000000
     6   Atom       -0.001291     -0.000000      0.000000
 --------------------------------------------------------


 ---------------------------------------------------------------------------------
              Anisotropic Spin Dipole Couplings in Principal Axis System
 ---------------------------------------------------------------------------------

       Atom             a.u.   MegaHertz   Gauss  10(-4) cm-1        Axes

              Baa    -0.1960   -26.298    -9.384    -8.772  0.9995  0.0317  0.0000
     1 C(13)  Bbb    -0.1952   -26.192    -9.346    -8.737 -0.0000 -0.0000  1.0000
              Bcc     0.3912    52.490    18.730    17.509 -0.0317  0.9995  0.0000
 
              Baa    -0.0250   -13.335    -4.758    -4.448  0.0000  0.0000  1.0000
     2 H(1)   Bbb    -0.0061    -3.241    -1.157    -1.081 -0.6135  0.7897 -0.0000
              Bcc     0.0311    16.576     5.915     5.529  0.7897  0.6135 -0.0000
 
              Baa    -0.0252   -13.441    -4.796    -4.483  0.8617  0.0183  0.5071
     3 H(1)   Bbb    -0.0062    -3.303    -1.179    -1.102  0.2863  0.8075 -0.5158
              Bcc     0.0314    16.744     5.975     5.585 -0.4189  0.5896  0.6905
 
              Baa    -0.0252   -13.441    -4.796    -4.483  0.8617  0.0183 -0.5071
     4 H(1)   Bbb    -0.0062    -3.303    -1.179    -1.102  0.2863  0.8075  0.5158
              Bcc     0.0314    16.744     5.975     5.585  0.4189 -0.5896  0.6905
 
              Baa    -0.1171   -62.496   -22.300   -20.846  0.0000 -0.0000  1.0000
     5 H(1)   Bbb    -0.1168   -62.326   -22.240   -20.790  1.0000 -0.0022 -0.0000
              Bcc     0.2339   124.822    44.540    41.636  0.0022  1.0000  0.0000
 
              Baa    -0.0195   -10.380    -3.704    -3.462  0.0443  0.9990 -0.0000
     6 H(1)   Bbb     0.0097     5.186     1.851     1.730  0.9990 -0.0443  0.0000
              Bcc     0.0097     5.193     1.853     1.732 -0.0000  0.0000  1.0000
 

 ---------------------------------------------------------------------------------

 No NMR shielding tensors so no spin-rotation constants.
 Leave Link  601 at Fri Aug 23 16:08:08 2019, MaxMem=  2684354560 cpu:         3.1
 (Enter /soft/gaussian/09-e.01/g09/l701.exe)
 Compute integral first derivatives.
 ... and contract with generalized density number  0.
 Leave Link  701 at Fri Aug 23 16:08:08 2019, MaxMem=  2684354560 cpu:         1.6
 (Enter /soft/gaussian/09-e.01/g09/l702.exe)
 L702 exits ... SP integral derivatives will be done elsewhere.
 Leave Link  702 at Fri Aug 23 16:08:08 2019, MaxMem=  2684354560 cpu:         0.2
 (Enter /soft/gaussian/09-e.01/g09/l703.exe)
 Compute integral first derivatives, UseDBF=F ICtDFT=           0.
 Integral derivatives from FoFJK, PRISM(SPDF).
 Calling FoFJK, ICntrl=      2127 FMM=F ISym2X=1 I1Cent= 0 IOpClX= 1 NMat=1 NMatS=1 NMatT=0.
 FoFJK:  IHMeth= 1 ICntrl=    2127 DoSepK=F KAlg= 0 I1Cent=   0 FoldK=F
 IRaf=         0 NMat=   1 IRICut=       1 DoRegI=T DoRafI=F ISym2E= 1.
 FoFCou: FMM=F IPFlag=           0 FMFlag=      100000 FMFlg1=         800
         NFxFlg=           0 DoJE=F BraDBF=F KetDBF=F FulRan=T
         wScrn=  0.000000 ICntrl=    2127 IOpCl=  1 I1Cent=           0 NGrid=           0
         NMat0=    1 NMatS0=      1 NMatT0=    0 NMatD0=    1 NMtDS0=    0 NMtDT0=    0
 Petite list used in FoFCou.
 Leave Link  703 at Fri Aug 23 16:08:09 2019, MaxMem=  2684354560 cpu:         1.8
 (Enter /soft/gaussian/09-e.01/g09/l716.exe)
 Dipole        =-1.93849003D-03 2.69617830D-01 5.48477692D-16
 ***** Axes restored to original set *****
 -------------------------------------------------------------------
 Center     Atomic                   Forces (Hartrees/Bohr)
 Number     Number              X              Y              Z
 -------------------------------------------------------------------
      1        6           0.026122689   -0.045245824    0.019696308
      2        1          -0.001400630    0.002425962    0.001004289
      3        1           0.000230333    0.002553220   -0.001696679
      4        1          -0.002326320    0.001077135   -0.001696679
      5        1          -0.007172113    0.012422463   -0.004453791
      6        1          -0.015453960    0.026767044   -0.012853447
 -------------------------------------------------------------------
 Cartesian Forces:  Max     0.045245824 RMS     0.015796246
 -----------------------------------------------------------------------------------------------
                       Internal Coordinate Forces (Hartree/Bohr or radian)
  Cent   Atom   N1       Length/X         N2         Alpha/Y        N3         Beta/Z          J
 -----------------------------------------------------------------------------------------------
      1  C 
      2  H        1   0.001004(     1)
      3  H        1   0.000783(     2)      2   0.003143(     7)
      4  H        1   0.000783(     3)      2   0.003143(     8)      3   0.004968(    12)     0
      5  H        1   0.048433(     4)      2   0.000405(     9)      3   0.000000(    13)     0
         X        5   0.000000(     5)      1   0.002141(    10)      2   0.000000(    14)     0
      6  H        5   0.033456(     6)      6   0.002141(    11)      1   0.000000(    15)     0
 -----------------------------------------------------------------------------------------------
 Internal  Forces:  Max     0.048433211 RMS     0.015321167
 Force constants in Cartesian coordinates: 
                1             2             3             4             5 
      1  0.825227D+00
      2  0.904475D-01  0.720787D+00
      3 -0.615639D-02  0.106632D-01  0.699040D+00
      4 -0.719808D-01  0.248364D-02  0.000000D+00  0.572310D-01
      5  0.248364D-02 -0.748487D-01  0.000000D+00  0.263014D-03  0.569273D-01
      6  0.000000D+00  0.000000D+00 -0.345595D+00  0.000000D+00  0.000000D+00
      7 -0.317375D+00 -0.106167D-02  0.844459D-01  0.125683D-01  0.000000D+00
      8 -0.295122D-02 -0.781215D-01 -0.330629D-03  0.000000D+00  0.436532D-03
      9  0.798174D-01 -0.300286D-02 -0.106746D+00  0.355484D-01  0.000000D+00
     10 -0.139673D+00 -0.105548D+00 -0.419366D-01  0.346946D-02  0.525319D-02
     11 -0.103658D+00 -0.255824D+00 -0.732976D-01  0.525319D-02  0.953533D-02
     12 -0.373082D-01 -0.706254D-01 -0.106746D+00 -0.177742D-01 -0.307858D-01
     13 -0.467222D+00 -0.818737D-01 -0.285432D-01 -0.653527D-02 -0.110294D-01
     14 -0.818737D-01 -0.372682D+00  0.494382D-01 -0.110294D-01  0.620042D-02
     15 -0.302860D-01  0.524569D-01 -0.174272D+00 -0.177742D-01  0.307858D-01
     16  0.171024D+00  0.955522D-01 -0.780971D-02  0.524738D-02  0.302958D-02
     17  0.955522D-01  0.606894D-01  0.135268D-01  0.302958D-02  0.174913D-02
     18 -0.606687D-02  0.105081D-01  0.343194D-01  0.000000D+00  0.000000D+00
                6             7             8             9            10 
      6  0.345595D+00
      7  0.000000D+00  0.313555D+00
      8  0.000000D+00  0.876712D-04  0.569273D-01
      9  0.000000D+00 -0.906241D-01  0.247972D-03  0.892715D-01
     10  0.000000D+00 -0.520040D-02 -0.272741D-01 -0.147089D-01  0.121160D+00
     11  0.000000D+00  0.175106D-02  0.953533D-02  0.495276D-02  0.111167D+00
     12  0.000000D+00  0.306526D-02  0.152147D-01  0.866986D-02  0.450973D-01
     13  0.000000D+00 -0.179800D-02  0.331672D-01 -0.508550D-02  0.237417D-01
     14  0.000000D+00  0.232795D-03  0.129715D-01  0.658444D-03  0.184218D-01
     15  0.000000D+00  0.311298D-02 -0.151320D-01  0.880484D-02  0.115482D-01
     16  0.000000D+00 -0.174913D-02 -0.302958D-02 -0.494728D-02 -0.349826D-02
     17  0.000000D+00 -0.100986D-02 -0.174913D-02 -0.285631D-02 -0.201972D-02
     18  0.000000D+00  0.000000D+00  0.000000D+00  0.000000D+00  0.000000D+00
               11            12            13            14            15 
     11  0.249322D+00
     12  0.786068D-01  0.892715D-01
     13 -0.145126D-01  0.197252D-02  0.840545D+00
     14 -0.125683D-01  0.473340D-02  0.211480D+00  0.596349D+00
     15 -0.102619D-01  0.880484D-02  0.490123D-01 -0.848917D-01  0.254888D+00
     16  0.000000D+00  0.494728D-02 -0.388732D+00 -0.137232D+00 -0.156133D-01
     17  0.000000D+00  0.285631D-02 -0.137232D+00 -0.230271D+00  0.270430D-01
     18  0.000000D+00  0.000000D+00 -0.173561D-01  0.300617D-01 -0.982262D-01
               16            17            18 
     16  0.217709D+00
     17  0.416797D-01  0.169581D+00
     18  0.234230D-01 -0.405698D-01  0.639068D-01
 Force constants in internal coordinates: 
                1             2             3             4             5 
      1  0.345595D+00
      2  0.000000D+00  0.345595D+00
      3  0.000000D+00  0.000000D+00  0.345595D+00
      4  0.000000D+00  0.000000D+00  0.000000D+00  0.345595D+00
      5  0.000000D+00  0.000000D+00  0.000000D+00  0.000000D+00  0.000000D+00
      6  0.000000D+00  0.000000D+00  0.000000D+00  0.000000D+00  0.000000D+00
      7  0.000000D+00  0.000000D+00  0.000000D+00  0.000000D+00  0.000000D+00
      8  0.000000D+00  0.000000D+00  0.000000D+00  0.000000D+00  0.000000D+00
      9  0.000000D+00  0.000000D+00  0.000000D+00  0.000000D+00  0.000000D+00
     10  0.000000D+00  0.000000D+00  0.000000D+00  0.000000D+00  0.000000D+00
     11  0.000000D+00  0.000000D+00  0.000000D+00  0.000000D+00  0.000000D+00
     12  0.000000D+00  0.000000D+00  0.000000D+00  0.000000D+00  0.000000D+00
     13  0.000000D+00  0.000000D+00  0.000000D+00  0.000000D+00  0.000000D+00
     14  0.000000D+00  0.000000D+00  0.000000D+00  0.000000D+00  0.000000D+00
     15  0.000000D+00  0.000000D+00  0.000000D+00  0.000000D+00  0.000000D+00
                6             7             8             9            10 
      6  0.166838D+00
      7  0.000000D+00  0.243800D+00
      8  0.000000D+00  0.415497D-01  0.243800D+00
      9  0.000000D+00  0.421965D-01  0.421965D-01  0.242291D+00
     10  0.000000D+00  0.000000D+00  0.000000D+00  0.000000D+00  0.160000D+00
     11  0.000000D+00  0.000000D+00  0.000000D+00  0.000000D+00  0.160000D+00
     12  0.000000D+00 -0.648136D-01 -0.105634D-02  0.644615D-01  0.000000D+00
     13  0.000000D+00  0.637573D-01 -0.637573D-01  0.000000D+00  0.000000D+00
     14  0.000000D+00 -0.211268D-02  0.211268D-02  0.000000D+00  0.000000D+00
     15  0.000000D+00 -0.241481D-01  0.241481D-01  0.000000D+00  0.000000D+00
               11            12            13            14            15 
     11  0.160000D+00
     12  0.000000D+00  0.215561D+00
     13  0.000000D+00 -0.108068D+00  0.216136D+00
     14  0.000000D+00 -0.115000D-02  0.230000D-02  0.690000D-02
     15  0.000000D+00 -0.131446D-01  0.262891D-01  0.788674D-01  0.901458D+00
 Leave Link  716 at Fri Aug 23 16:08:09 2019, MaxMem=  2684354560 cpu:         0.2
 (Enter /soft/gaussian/09-e.01/g09/l103.exe)

 GradGradGradGradGradGradGradGradGradGradGradGradGradGradGradGradGradGrad
 Berny optimization.
 Search for a local minimum.
 Step number   1 out of a maximum of   25
 All quantities printed in internal units (Hartrees-Bohrs-Radians)
 Second derivative matrix not updated -- first step.
 The second derivative matrix:
                          R1        R2        A2        R3        A3
           R1           0.34560
           R2          -0.00000   0.34560
           A2           0.00000  -0.00000   0.24380
           R3          -0.00000   0.00000  -0.00000   0.34560
           A3           0.00000  -0.00000   0.04155  -0.00000   0.24380
           D3           0.00000   0.00000  -0.06481  -0.00000  -0.00106
           R4           0.00000  -0.00000  -0.00000  -0.00000  -0.00000
           A4          -0.00000   0.00000   0.04220   0.00000   0.04220
           D4           0.00000   0.00000   0.06376  -0.00000  -0.06376
           D6           0.00000  -0.00000  -0.02415   0.00000   0.02415
           A6           0.00000  -0.00000  -0.00000   0.00000  -0.00000
           R5          -0.00000  -0.00000  -0.00000   0.00000   0.00000
           A5           0.00000  -0.00000  -0.00000   0.00000  -0.00000
           D5           0.00000   0.00000  -0.00211   0.00000   0.00211
           R6           0.00000  -0.00000   0.00000  -0.00000  -0.00000
                          D3        R4        A4        D4        D6
           D3           0.21556
           R4          -0.00000   0.34560
           A4           0.06446   0.00000   0.24229
           D4          -0.10807   0.00000  -0.00000   0.21614
           D6          -0.01314   0.00000   0.00000   0.02629   0.90146
           A6          -0.00000  -0.00000  -0.00000   0.00000   0.00000
           R5           0.00000  -0.00000   0.00000  -0.00000   0.00000
           A5          -0.00000  -0.00000  -0.00000   0.00000  -0.00000
           D5          -0.00115  -0.00000   0.00000   0.00230   0.07887
           R6          -0.00000  -0.00000  -0.00000   0.00000  -0.00000
                          A6        R5        A5        D5        R6
           A6           0.16000
           R5          -0.00000   0.00000
           A5           0.16000  -0.00000   0.16000
           D5          -0.00000   0.00000  -0.00000   0.00690
           R6           0.00000  -0.00000   0.00000  -0.00000   0.16684
 ITU=  0
     Eigenvalues ---    0.07436   0.13417   0.16000   0.23378   0.32726
     Eigenvalues ---    0.34560   0.34560   0.34560   0.34560   0.38934
     Eigenvalues ---    0.904151000.000001000.000001000.000001000.00000
 RFO step:  Lambda=-6.99887974D-03 EMin= 7.43553518D-02
 Linear search not attempted -- first point.
 Variable       Old X    -DE/DX   Delta X   Delta X   Delta X     New X
                                 (Linear)    (Quad)   (Total)
    R1        2.06396   0.00100   0.00000   0.00285   0.00285   2.06681
    R2        2.06396   0.00078   0.00000   0.00222   0.00222   2.06618
    A2        1.91063   0.00314   0.00000   0.01789   0.01789   1.92852
    R3        2.06396   0.00078   0.00000   0.00222   0.00222   2.06618
    A3        1.91063   0.00314   0.00000   0.01739   0.01739   1.92803
    D3        2.09440   0.00497   0.00000   0.04175   0.04175   2.13615
    R4        2.06396   0.04843   0.00000   0.13736   0.13736   2.20132
    A4        1.91063   0.00041   0.00000  -0.01514  -0.01514   1.89549
    D4        4.18879   0.00000   0.00000   0.02007   0.02007   4.20887
    D6        3.14159   0.00000   0.00000   0.00004   0.00004   3.14163
    A6        1.48353   0.00214   0.00000   0.01282   0.01282   1.49635
    R5        1.88973   0.00000   0.00000   0.00000   0.00000   1.88973
    A5        1.57080   0.00214   0.00000   0.00000   0.00000   1.57080
    D5        3.14159   0.00000   0.00000   0.00000   0.00000   3.14159
    R6        1.93832   0.03346   0.00000   0.00000   0.00000   1.93832
         Item               Value     Threshold  Converged?
 Maximum Force            0.048433     0.000450     NO 
 RMS     Force            0.014762     0.000300     NO 
 Maximum Displacement     0.137363     0.001800     NO 
 RMS     Displacement     0.038340     0.001200     NO 
 Predicted change in Energy=-3.576599D-03
 Lowest energy point so far.  Saving SCF results.
 GradGradGradGradGradGradGradGradGradGradGradGradGradGradGradGradGradGrad

 Leave Link  103 at Fri Aug 23 16:08:09 2019, MaxMem=  2684354560 cpu:         0.1
 (Enter /soft/gaussian/09-e.01/g09/l202.exe)
 ---------------------------------------------------------------------------------------------------
                            Z-MATRIX (ANGSTROMS AND DEGREES)
   CD    Cent   Atom    N1       Length/X        N2       Alpha/Y        N3        Beta/Z          J
 ---------------------------------------------------------------------------------------------------
      1      1  C 
      2      2  H        1   1.093708(     1)
      3      3  H        1   1.093376(     2)      2  110.496(     7)
      4      4  H        1   1.093376(     3)      2  110.468(     8)      3  122.392(    12)      0
      5      5  H        1   1.164890(     4)      2  108.604(     9)      3  241.150(    13)      0
      6         X        5   1.000000(     5)      1   90.000(    10)      2  180.000(    14)      0
      7      6  H        5   1.025714(     6)      6   85.734(    11)      1  180.002(    15)      0
 ---------------------------------------------------------------------------------------------------
                         Z-Matrix orientation:                         
 ---------------------------------------------------------------------
 Center     Atomic      Atomic             Coordinates (Angstroms)
 Number     Number       Type             X           Y           Z
 ---------------------------------------------------------------------
      1          6           0        0.000000    0.000000    0.000000
      2          1           0        0.000000    0.000000    1.093708
      3          1           0        1.024160    0.000000   -0.382840
      4          1           0       -0.548757   -0.864962   -0.382331
      5          1           0       -0.532708    0.967000   -0.371621
      6         -1           0       -0.378777    0.687576   -1.319370
      7          1           0       -0.988759    1.794773   -0.770242
 ---------------------------------------------------------------------
                    Distance matrix (angstroms):
                    1          2          3          4          5
     1  C    0.000000
     2  H    1.093708   0.000000
     3  H    1.093376   1.796969   0.000000
     4  H    1.093376   1.796660   1.795056   0.000000
     5  H    1.164890   1.834682   1.832772   1.832064   0.000000
     6  X    1.535242   2.537554   1.821560   1.821348   1.000000
     7  H    2.189093   2.770048   2.724543   2.723649   1.025714
                    6          7
     6  X    0.000000
     7  H    1.378225   0.000000
 Stoichiometry    CH5(2)
 Framework group  C1[X(CH5)]
 Deg. of freedom    12
 Full point group                 C1      NOp   1
 Omega: Change in point group or standard orientation.

 Old FWG=CS   [SG(C1H3),X(H2)]
 New FWG=C01  [X(C1H5)]
 RotChk:  IX=2 Diff= 1.98D+00
 Largest Abelian subgroup         C1      NOp   1
 Largest concise Abelian subgroup C1      NOp   1
                         Standard orientation:                         
 ---------------------------------------------------------------------
 Center     Atomic      Atomic             Coordinates (Angstroms)
 Number     Number       Type             X           Y           Z
 ---------------------------------------------------------------------
      1          6           0       -0.210345   -0.000023    0.000063
      2          1           0       -0.594885    1.020473    0.083219
      3          1           0       -0.538470   -0.603300    0.850864
      4          1           0       -0.537173   -0.456485   -0.938178
      5          1           0        0.953849    0.040104    0.003475
      6          1           0        1.978748   -0.000652    0.000239
 ---------------------------------------------------------------------
 Rotational constants (GHZ):    155.4221351     64.2540519     64.2191776
 Leave Link  202 at Fri Aug 23 16:08:09 2019, MaxMem=  2684354560 cpu:         0.1
 (Enter /soft/gaussian/09-e.01/g09/l301.exe)
 Standard basis: 6-31G(d) (6D, 7F)
 Ernie: Thresh=  0.10000D-02 Tol=  0.10000D-05 Strict=F.
 There are    25 symmetry adapted cartesian basis functions of A   symmetry.
 There are    25 symmetry adapted basis functions of A   symmetry.
    25 basis functions,    48 primitive gaussians,    25 cartesian basis functions
     6 alpha electrons        5 beta electrons
       nuclear repulsion energy        15.7321569254 Hartrees.
 IExCor=  402 DFT=T Ex+Corr=B3LYP ExCW=0 ScaHFX=  0.200000
 ScaDFX=  0.800000  0.720000  1.000000  0.810000 ScalE2=  1.000000  1.000000
 IRadAn=      5 IRanWt=     -1 IRanGd=            0 ICorTp=0 IEmpDi=  4
 NAtoms=    6 NActive=    6 NUniq=    6 SFac= 1.00D+00 NAtFMM=   60 NAOKFM=F Big=F
 Integral buffers will be    131072 words long.
 Raffenetti 2 integral format.
 Two-electron integral symmetry is turned on.
 Leave Link  301 at Fri Aug 23 16:08:09 2019, MaxMem=  2684354560 cpu:         0.5
 (Enter /soft/gaussian/09-e.01/g09/l302.exe)
 NPDir=0 NMtPBC=     1 NCelOv=     1 NCel=       1 NClECP=     1 NCelD=      1
         NCelK=      1 NCelE2=     1 NClLst=     1 CellRange=     0.0.
 One-electron integrals computed using PRISM.
 NBasis=    25 RedAO= T EigKep=  1.17D-02  NBF=    25
 NBsUse=    25 1.00D-06 EigRej= -1.00D+00 NBFU=    25
 Precomputing XC quadrature grid using
 IXCGrd= 4 IRadAn=           5 IRanWt=          -1 IRanGd=           0 AccXCQ= 0.00D+00.
 Generated NRdTot=       0 NPtTot=           0 NUsed=           0 NTot=          32
 NSgBfM=    25    25    25    25    25 MxSgAt=     6 MxSgA2=     6.
 Leave Link  302 at Fri Aug 23 16:08:09 2019, MaxMem=  2684354560 cpu:         1.6
 (Enter /soft/gaussian/09-e.01/g09/l303.exe)
 DipDrv:  MaxL=1.
 Leave Link  303 at Fri Aug 23 16:08:09 2019, MaxMem=  2684354560 cpu:         0.2
 (Enter /soft/gaussian/09-e.01/g09/l401.exe)
 Initial guess from the checkpoint file:  "/blues/gpfs/home/elliott/Packages/PACC/moldriver/rcdriver/rundir/RXN/CH3.H2/MDUSDFXREFXETQ/0_0/2_1/UHFFFAOYSA-N/CH4.H/HXBDELFRWIQQII/0_0/1_2/UHFFFAOYSA-N/2/ezvlpJU/SCANS/R6/02/RUN/OPTI/A00/Gau-40464.chk"
 B after Tr=     0.000000    0.000000    0.000000
         Rot=    0.707550   -0.028836    0.028971   -0.705480 Ang= -89.93 deg.
 Guess basis will be translated and rotated to current coordinates.
 JPrj=2 DoOrth=T DoCkMO=T.
 Initial guess <Sx>= 0.0000 <Sy>= 0.0000 <Sz>= 0.5000 <S**2>= 0.7537 S= 0.5018
 Generating alternative initial guess.
 ExpMin= 1.61D-01 ExpMax= 3.05D+03 ExpMxC= 4.57D+02 IAcc=2 IRadAn=         4 AccDes= 0.00D+00
 Harris functional with IExCor=  402 and IRadAn=       4 diagonalized for initial guess.
 HarFok:  IExCor=  402 AccDes= 0.00D+00 IRadAn=         4 IDoV= 1 UseB2=F ITyADJ=14
 ICtDFT=  3500011 ScaDFX=  1.000000  1.000000  1.000000  1.000000
 FoFCou: FMM=F IPFlag=           0 FMFlag=      100000 FMFlg1=           0
         NFxFlg=           0 DoJE=T BraDBF=F KetDBF=T FulRan=T
         wScrn=  0.000000 ICntrl=     500 IOpCl=  0 I1Cent=   200000004 NGrid=           0
         NMat0=    1 NMatS0=      1 NMatT0=    0 NMatD0=    1 NMtDS0=    0 NMtDT0=    0
 Petite list used in FoFCou.
 Harris En= -41.0100099251476    
 Leave Link  401 at Fri Aug 23 16:08:09 2019, MaxMem=  2684354560 cpu:         2.2
 (Enter /soft/gaussian/09-e.01/g09/l502.exe)
 UHF open shell SCF:
 Using DIIS extrapolation, IDIIS=  1040.
 Integral symmetry usage will be decided dynamically.
 Keep R1 and R2 ints in memory in canonical form, NReq=976418.
 IVT=        8268 IEndB=        8268 NGot=  2684354560 MDV=  2684240343
 LenX=  2684240343 LenY=  2684239277
 Requested convergence on RMS density matrix=1.00D-08 within  64 cycles.
 Requested convergence on MAX density matrix=1.00D-06.
 Requested convergence on             energy=1.00D-06.
 No special actions if energy rises.
 FoFCou: FMM=F IPFlag=           0 FMFlag=           0 FMFlg1=           0
         NFxFlg=           0 DoJE=F BraDBF=F KetDBF=F FulRan=T
         wScrn=  0.000000 ICntrl=     600 IOpCl=  0 I1Cent=           0 NGrid=           0
         NMat0=    1 NMatS0=    325 NMatT0=    0 NMatD0=    1 NMtDS0=    0 NMtDT0=    0
 Symmetry not used in FoFCou.
 Integral accuracy reduced to 1.0D-05 until final iterations.

 Cycle   1  Pass 0  IDiag  1:
 E= -41.0033895032977    
 DIIS: error= 5.85D-03 at cycle   1 NSaved=   1.
 NSaved= 1 IEnMin= 1 EnMin= -41.0033895032977     IErMin= 1 ErrMin= 5.85D-03
 ErrMax= 5.85D-03  0.00D+00 EMaxC= 1.00D-01 BMatC= 1.98D-03 BMatP= 1.98D-03
 IDIUse=3 WtCom= 9.41D-01 WtEn= 5.85D-02
 Coeff-Com:  0.100D+01
 Coeff-En:   0.100D+01
 Coeff:      0.100D+01
 Gap=     1.869 Goal=   None    Shift=    0.000
 Gap=     1.909 Goal=   None    Shift=    0.000
 GapD=    1.869 DampG=2.000 DampE=1.000 DampFc=2.0000 IDamp=-1.
 RMSDP=1.52D-03 MaxDP=1.47D-02              OVMax= 3.37D-02

 Cycle   2  Pass 0  IDiag  1:
 E= -41.0042688297073     Delta-E=       -0.000879326410 Rises=F Damp=F
 DIIS: error= 3.45D-03 at cycle   2 NSaved=   2.
 NSaved= 2 IEnMin= 2 EnMin= -41.0042688297073     IErMin= 2 ErrMin= 3.45D-03
 ErrMax= 3.45D-03  0.00D+00 EMaxC= 1.00D-01 BMatC= 6.71D-04 BMatP= 1.98D-03
 IDIUse=3 WtCom= 9.65D-01 WtEn= 3.45D-02
 Coeff-Com:  0.305D+00 0.695D+00
 Coeff-En:   0.000D+00 0.100D+01
 Coeff:      0.294D+00 0.706D+00
 Gap=     0.352 Goal=   None    Shift=    0.000
 Gap=     0.327 Goal=   None    Shift=    0.000
 RMSDP=1.07D-03 MaxDP=1.26D-02 DE=-8.79D-04 OVMax= 8.53D-03

 Cycle   3  Pass 0  IDiag  1:
 E= -41.0044026168425     Delta-E=       -0.000133787135 Rises=F Damp=F
 DIIS: error= 1.74D-03 at cycle   3 NSaved=   3.
 NSaved= 3 IEnMin= 3 EnMin= -41.0044026168425     IErMin= 3 ErrMin= 1.74D-03
 ErrMax= 1.74D-03  0.00D+00 EMaxC= 1.00D-01 BMatC= 2.12D-04 BMatP= 6.71D-04
 IDIUse=3 WtCom= 9.83D-01 WtEn= 1.74D-02
 Coeff-Com: -0.177D-01 0.351D+00 0.667D+00
 Coeff-En:   0.000D+00 0.197D+00 0.803D+00
 Coeff:     -0.173D-01 0.348D+00 0.669D+00
 Gap=     0.351 Goal=   None    Shift=    0.000
 Gap=     0.326 Goal=   None    Shift=    0.000
 RMSDP=2.58D-04 MaxDP=2.62D-03 DE=-1.34D-04 OVMax= 5.37D-03

 Cycle   4  Pass 0  IDiag  1:
 E= -41.0044638008129     Delta-E=       -0.000061183970 Rises=F Damp=F
 DIIS: error= 2.23D-04 at cycle   4 NSaved=   4.
 NSaved= 4 IEnMin= 4 EnMin= -41.0044638008129     IErMin= 4 ErrMin= 2.23D-04
 ErrMax= 2.23D-04  0.00D+00 EMaxC= 1.00D-01 BMatC= 3.55D-06 BMatP= 2.12D-04
 IDIUse=3 WtCom= 9.98D-01 WtEn= 2.23D-03
 Coeff-Com: -0.141D-01-0.672D-03 0.901D-01 0.925D+00
 Coeff-En:   0.000D+00 0.000D+00 0.000D+00 0.100D+01
 Coeff:     -0.140D-01-0.671D-03 0.899D-01 0.925D+00
 Gap=     0.351 Goal=   None    Shift=    0.000
 Gap=     0.326 Goal=   None    Shift=    0.000
 RMSDP=9.91D-05 MaxDP=1.20D-03 DE=-6.12D-05 OVMax= 9.09D-04

 Cycle   5  Pass 0  IDiag  1:
 E= -41.0044656267884     Delta-E=       -0.000001825976 Rises=F Damp=F
 DIIS: error= 8.58D-05 at cycle   5 NSaved=   5.
 NSaved= 5 IEnMin= 5 EnMin= -41.0044656267884     IErMin= 5 ErrMin= 8.58D-05
 ErrMax= 8.58D-05  0.00D+00 EMaxC= 1.00D-01 BMatC= 2.79D-07 BMatP= 3.55D-06
 IDIUse=1 WtCom= 1.00D+00 WtEn= 0.00D+00
 Coeff-Com:  0.378D-02-0.411D-01-0.688D-01-0.452D-01 0.115D+01
 Coeff:      0.378D-02-0.411D-01-0.688D-01-0.452D-01 0.115D+01
 Gap=     0.351 Goal=   None    Shift=    0.000
 Gap=     0.326 Goal=   None    Shift=    0.000
 RMSDP=4.41D-05 MaxDP=5.54D-04 DE=-1.83D-06 OVMax= 5.50D-04

 Cycle   6  Pass 0  IDiag  1:
 E= -41.0044658428720     Delta-E=       -0.000000216084 Rises=F Damp=F
 DIIS: error= 1.19D-05 at cycle   6 NSaved=   6.
 NSaved= 6 IEnMin= 6 EnMin= -41.0044658428720     IErMin= 6 ErrMin= 1.19D-05
 ErrMax= 1.19D-05  0.00D+00 EMaxC= 1.00D-01 BMatC= 9.91D-09 BMatP= 2.79D-07
 IDIUse=1 WtCom= 1.00D+00 WtEn= 0.00D+00
 Coeff-Com:  0.749D-03-0.257D-02-0.644D-02-0.510D-01 0.707D-01 0.989D+00
 Coeff:      0.749D-03-0.257D-02-0.644D-02-0.510D-01 0.707D-01 0.989D+00
 Gap=     0.351 Goal=   None    Shift=    0.000
 Gap=     0.326 Goal=   None    Shift=    0.000
 RMSDP=6.82D-06 MaxDP=7.94D-05 DE=-2.16D-07 OVMax= 5.79D-05

 Initial convergence to 1.0D-05 achieved.  Increase integral accuracy.
 Cycle   7  Pass 1  IDiag  1:
 E= -41.0044657440356     Delta-E=        0.000000098836 Rises=F Damp=F
 DIIS: error= 3.43D-06 at cycle   1 NSaved=   1.
 NSaved= 1 IEnMin= 1 EnMin= -41.0044657440356     IErMin= 1 ErrMin= 3.43D-06
 ErrMax= 3.43D-06  0.00D+00 EMaxC= 1.00D-01 BMatC= 7.38D-10 BMatP= 7.38D-10
 IDIUse=1 WtCom= 1.00D+00 WtEn= 0.00D+00
 Coeff-Com:  0.100D+01
 Coeff:      0.100D+01
 Gap=     0.351 Goal=   None    Shift=    0.000
 Gap=     0.326 Goal=   None    Shift=    0.000
 RMSDP=6.82D-06 MaxDP=7.94D-05 DE= 9.88D-08 OVMax= 1.44D-05

 Cycle   8  Pass 1  IDiag  1:
 E= -41.0044657443789     Delta-E=       -0.000000000343 Rises=F Damp=F
 DIIS: error= 2.79D-06 at cycle   2 NSaved=   2.
 NSaved= 2 IEnMin= 2 EnMin= -41.0044657443789     IErMin= 2 ErrMin= 2.79D-06
 ErrMax= 2.79D-06  0.00D+00 EMaxC= 1.00D-01 BMatC= 3.52D-10 BMatP= 7.38D-10
 IDIUse=1 WtCom= 1.00D+00 WtEn= 0.00D+00
 Coeff-Com:  0.348D+00 0.652D+00
 Coeff:      0.348D+00 0.652D+00
 Gap=     0.351 Goal=   None    Shift=    0.000
 Gap=     0.326 Goal=   None    Shift=    0.000
 RMSDP=5.16D-07 MaxDP=4.23D-06 DE=-3.43D-10 OVMax= 8.06D-06

 Cycle   9  Pass 1  IDiag  1:
 E= -41.0044657444823     Delta-E=       -0.000000000103 Rises=F Damp=F
 DIIS: error= 1.54D-06 at cycle   3 NSaved=   3.
 NSaved= 3 IEnMin= 3 EnMin= -41.0044657444823     IErMin= 3 ErrMin= 1.54D-06
 ErrMax= 1.54D-06  0.00D+00 EMaxC= 1.00D-01 BMatC= 9.56D-11 BMatP= 3.52D-10
 IDIUse=1 WtCom= 1.00D+00 WtEn= 0.00D+00
 Coeff-Com: -0.206D+00 0.276D+00 0.930D+00
 Coeff:     -0.206D+00 0.276D+00 0.930D+00
 Gap=     0.351 Goal=   None    Shift=    0.000
 Gap=     0.326 Goal=   None    Shift=    0.000
 RMSDP=3.30D-07 MaxDP=2.82D-06 DE=-1.03D-10 OVMax= 3.60D-06

 Cycle  10  Pass 1  IDiag  1:
 E= -41.0044657445196     Delta-E=       -0.000000000037 Rises=F Damp=F
 DIIS: error= 1.42D-07 at cycle   4 NSaved=   4.
 NSaved= 4 IEnMin= 4 EnMin= -41.0044657445196     IErMin= 4 ErrMin= 1.42D-07
 ErrMax= 1.42D-07  0.00D+00 EMaxC= 1.00D-01 BMatC= 2.33D-12 BMatP= 9.56D-11
 IDIUse=1 WtCom= 1.00D+00 WtEn= 0.00D+00
 Coeff-Com: -0.751D-01 0.589D-02 0.138D+00 0.931D+00
 Coeff:     -0.751D-01 0.589D-02 0.138D+00 0.931D+00
 Gap=     0.351 Goal=   None    Shift=    0.000
 Gap=     0.326 Goal=   None    Shift=    0.000
 RMSDP=8.62D-08 MaxDP=5.50D-07 DE=-3.73D-11 OVMax= 7.51D-07

 Cycle  11  Pass 1  IDiag  1:
 E= -41.0044657445210     Delta-E=       -0.000000000001 Rises=F Damp=F
 DIIS: error= 3.45D-08 at cycle   5 NSaved=   5.
 NSaved= 5 IEnMin= 5 EnMin= -41.0044657445210     IErMin= 5 ErrMin= 3.45D-08
 ErrMax= 3.45D-08  0.00D+00 EMaxC= 1.00D-01 BMatC= 7.51D-14 BMatP= 2.33D-12
 IDIUse=1 WtCom= 1.00D+00 WtEn= 0.00D+00
 Coeff-Com:  0.198D-02-0.114D-01-0.193D-01 0.759D-01 0.953D+00
 Coeff:      0.198D-02-0.114D-01-0.193D-01 0.759D-01 0.953D+00
 Gap=     0.351 Goal=   None    Shift=    0.000
 Gap=     0.326 Goal=   None    Shift=    0.000
 RMSDP=1.66D-08 MaxDP=1.92D-07 DE=-1.44D-12 OVMax= 1.47D-07

 Cycle  12  Pass 1  IDiag  1:
 E= -41.0044657445211     Delta-E=       -0.000000000000 Rises=F Damp=F
 DIIS: error= 2.01D-08 at cycle   6 NSaved=   6.
 NSaved= 6 IEnMin= 6 EnMin= -41.0044657445211     IErMin= 6 ErrMin= 2.01D-08
 ErrMax= 2.01D-08  0.00D+00 EMaxC= 1.00D-01 BMatC= 1.02D-14 BMatP= 7.51D-14
 IDIUse=1 WtCom= 1.00D+00 WtEn= 0.00D+00
 Coeff-Com:  0.926D-02-0.428D-02-0.172D-01-0.875D-01 0.430D-01 0.106D+01
 Coeff:      0.926D-02-0.428D-02-0.172D-01-0.875D-01 0.430D-01 0.106D+01
 Gap=     0.351 Goal=   None    Shift=    0.000
 Gap=     0.326 Goal=   None    Shift=    0.000
 RMSDP=9.42D-09 MaxDP=1.27D-07 DE=-5.68D-14 OVMax= 7.28D-08

 SCF Done:  E(UB3LYP) =  -41.0044657445     A.U. after   12 cycles
            NFock= 12  Conv=0.94D-08     -V/T= 2.0089
 <Sx>= 0.0000 <Sy>= 0.0000 <Sz>= 0.5000 <S**2>= 0.7544 S= 0.5022
 <L.S>= 0.000000000000E+00
 KE= 4.064226883028D+01 PE=-1.254120574999D+02 EE= 2.803316599977D+01
 Annihilation of the first spin contaminant:
 S**2 before annihilation     0.7544,   after     0.7500
 Leave Link  502 at Fri Aug 23 16:08:10 2019, MaxMem=  2684354560 cpu:         6.4
 (Enter /soft/gaussian/09-e.01/g09/l508.exe)
 QCSCF skips out because SCF is already converged.
 Leave Link  508 at Fri Aug 23 16:08:10 2019, MaxMem=  2684354560 cpu:         0.0
 (Enter /soft/gaussian/09-e.01/g09/l701.exe)
 Compute integral first derivatives.
 ... and contract with generalized density number  0.
 Leave Link  701 at Fri Aug 23 16:08:10 2019, MaxMem=  2684354560 cpu:         1.6
 (Enter /soft/gaussian/09-e.01/g09/l702.exe)
 L702 exits ... SP integral derivatives will be done elsewhere.
 Leave Link  702 at Fri Aug 23 16:08:10 2019, MaxMem=  2684354560 cpu:         0.1
 (Enter /soft/gaussian/09-e.01/g09/l703.exe)
 Compute integral first derivatives, UseDBF=F ICtDFT=           0.
 Integral derivatives from FoFJK, PRISM(SPDF).
 Calling FoFJK, ICntrl=      2127 FMM=F ISym2X=0 I1Cent= 0 IOpClX= 1 NMat=1 NMatS=1 NMatT=0.
 FoFJK:  IHMeth= 1 ICntrl=    2127 DoSepK=F KAlg= 0 I1Cent=   0 FoldK=F
 IRaf=         0 NMat=   1 IRICut=       1 DoRegI=T DoRafI=F ISym2E= 0.
 FoFCou: FMM=F IPFlag=           0 FMFlag=      100000 FMFlg1=         800
         NFxFlg=           0 DoJE=F BraDBF=F KetDBF=F FulRan=T
         wScrn=  0.000000 ICntrl=    2127 IOpCl=  1 I1Cent=           0 NGrid=           0
         NMat0=    1 NMatS0=      1 NMatT0=    0 NMatD0=    1 NMtDS0=    0 NMtDT0=    0
 Symmetry not used in FoFCou.
 Leave Link  703 at Fri Aug 23 16:08:10 2019, MaxMem=  2684354560 cpu:         2.3
 (Enter /soft/gaussian/09-e.01/g09/l716.exe)
 Dipole        =-2.72545974D-01-3.02816905D-03-4.15503705D-04
 ***** Axes restored to original set *****
 -------------------------------------------------------------------
 Center     Atomic                   Forces (Hartrees/Bohr)
 Number     Number              X              Y              Z
 -------------------------------------------------------------------
      1        6           0.009253966   -0.016963920    0.007321747
      2        1          -0.001047931    0.001957017   -0.000646203
      3        1          -0.000853816    0.002068280   -0.000761910
      4        1          -0.001259515    0.001787519   -0.000771197
      5        1           0.004264649   -0.007646384    0.002910729
      6        1          -0.010357353    0.018797488   -0.008053165
 -------------------------------------------------------------------
 Cartesian Forces:  Max     0.018797488 RMS     0.007651900
 -----------------------------------------------------------------------------------------------
                       Internal Coordinate Forces (Hartree/Bohr or radian)
  Cent   Atom   N1       Length/X         N2         Alpha/Y        N3         Beta/Z          J
 -----------------------------------------------------------------------------------------------
      1  C 
      2  H        1  -0.000646(     1)
      3  H        1  -0.000533(     2)      2   0.002092(     7)
      4  H        1  -0.000512(     3)      2   0.002096(     8)      3   0.003912(    12)     0
      5  H        1   0.013684(     4)      2   0.000021(     9)      3   0.000090(    13)     0
         X        5  -0.000000(     5)      1   0.001784(    10)      2   0.000000(    14)     0
      6  H        5   0.022905(     6)      6   0.001784(    11)      1   0.000002(    15)     0
 -----------------------------------------------------------------------------------------------
 Internal  Forces:  Max     0.022904722 RMS     0.007039332
 Leave Link  716 at Fri Aug 23 16:08:10 2019, MaxMem=  2684354560 cpu:         0.2
 (Enter /soft/gaussian/09-e.01/g09/l103.exe)

 GradGradGradGradGradGradGradGradGradGradGradGradGradGradGradGradGradGrad
 Berny optimization.
 Search for a local minimum.
 Step number   2 out of a maximum of   25
 All quantities printed in internal units (Hartrees-Bohrs-Radians)
 Update second derivatives using D2CorN and points    1    2
 DE= -4.37D-03 DEPred=-3.58D-03 R= 1.22D+00
 TightC=F SS=  1.41D+00  RLast= 1.48D-01 DXNew= 5.0454D-01 4.4547D-01
 Trust test= 1.22D+00 RLast= 1.48D-01 DXMaxT set to 4.45D-01
 The second derivative matrix:
                          R1        R2        A2        R3        A3
           R1           0.34568
           R2           0.00007   0.34565
           A2           0.00014   0.00012   0.24220
           R3           0.00007   0.00005   0.00012   0.34565
           A3           0.00014   0.00012   0.03997   0.00011   0.24224
           D3           0.00040   0.00034  -0.06814   0.00032  -0.00435
           R4           0.00125   0.00107  -0.01129   0.00100  -0.01117
           A4          -0.00024  -0.00019   0.04282  -0.00019   0.04282
           D4           0.00031   0.00025   0.06288   0.00024  -0.06464
           D6           0.00000   0.00000  -0.02415   0.00000   0.02415
           A6           0.00008   0.00007  -0.00126   0.00007  -0.00124
           R5           0.00000   0.00000  -0.00000   0.00000   0.00000
           A5          -0.00011  -0.00009  -0.00069  -0.00009  -0.00067
           D5          -0.00000  -0.00000  -0.00211  -0.00000   0.00211
           R6           0.00068   0.00053   0.00428   0.00053   0.00416
                          D3        R4        A4        D4        D6
           D3           0.20871
           R4          -0.02332   0.26634
           A4           0.06558   0.00397   0.24238
           D4          -0.10967  -0.00563  -0.00007   0.21618
           D6          -0.01315  -0.00002   0.00000   0.02629   0.90146
           A6          -0.00266  -0.00898   0.00055  -0.00076  -0.00000
           R5           0.00000   0.00000   0.00000  -0.00000   0.00000
           A5          -0.00160  -0.00528   0.00058  -0.00077  -0.00000
           D5          -0.00115  -0.00000   0.00000   0.00230   0.07887
           R6           0.00999   0.03287  -0.00362   0.00480   0.00001
                          A6        R5        A5        D5        R6
           A6           0.15901
           R5          -0.00000   0.00000
           A5           0.15951  -0.00000   0.16000
           D5          -0.00000   0.00000  -0.00000   0.00690
           R6           0.00307  -0.00000   0.00000  -0.00000   0.16684
 ITU=  1  0
     Eigenvalues ---    0.06465   0.13172   0.15862   0.23378   0.26839
     Eigenvalues ---    0.32787   0.34560   0.34560   0.34584   0.38929
     Eigenvalues ---    0.904151000.000001000.000001000.000001000.00000
 RFO step:  Lambda=-5.97104382D-04 EMin= 6.46516526D-02
 Quartic linear search produced a step of  0.70209.
 Variable       Old X    -DE/DX   Delta X   Delta X   Delta X     New X
                                 (Linear)    (Quad)   (Total)
    R1        2.06681  -0.00065   0.00200  -0.00488  -0.00288   2.06393
    R2        2.06618  -0.00053   0.00156  -0.00396  -0.00240   2.06378
    A2        1.92852   0.00209   0.01256   0.01854   0.03110   1.95962
    R3        2.06618  -0.00051   0.00156  -0.00385  -0.00229   2.06389
    A3        1.92803   0.00210   0.01221   0.02365   0.03587   1.96389
    D3        2.13615   0.00391   0.02931   0.06332   0.09263   2.22878
    R4        2.20132   0.01368   0.09644  -0.00118   0.09526   2.29659
    A4        1.89549   0.00002  -0.01063  -0.02918  -0.03981   1.85568
    D4        4.20887   0.00009   0.01409   0.03985   0.05395   4.26281
    D6        3.14163   0.00000   0.00003  -0.00037  -0.00034   3.14129
    A6        1.49635   0.00178   0.00900   0.01587   0.02487   1.52122
    R5        1.88973  -0.00000   0.00000   0.00000   0.00000   1.88973
    A5        1.57080   0.00178   0.00000   0.00000   0.00000   1.57080
    D5        3.14159   0.00000   0.00000   0.00000   0.00000   3.14159
    R6        1.93832   0.02290   0.00000   0.00000   0.00000   1.93832
         Item               Value     Threshold  Converged?
 Maximum Force            0.013684     0.000450     NO 
 RMS     Force            0.004426     0.000300     NO 
 Maximum Displacement     0.095262     0.001800     NO 
 RMS     Displacement     0.040859     0.001200     NO 
 Predicted change in Energy=-3.663656D-04
 Lowest energy point so far.  Saving SCF results.
 GradGradGradGradGradGradGradGradGradGradGradGradGradGradGradGradGradGrad

 Leave Link  103 at Fri Aug 23 16:08:10 2019, MaxMem=  2684354560 cpu:         0.1
 (Enter /soft/gaussian/09-e.01/g09/l202.exe)
 ---------------------------------------------------------------------------------------------------
                            Z-MATRIX (ANGSTROMS AND DEGREES)
   CD    Cent   Atom    N1       Length/X        N2       Alpha/Y        N3        Beta/Z          J
 ---------------------------------------------------------------------------------------------------
      1      1  C 
      2      2  H        1   1.092185(     1)
      3      3  H        1   1.092107(     2)      2  112.278(     7)
      4      4  H        1   1.092164(     3)      2  112.523(     8)      3  127.700(    12)      0
      5      5  H        1   1.215301(     4)      2  106.323(     9)      3  244.241(    13)      0
      6         X        5   1.000000(     5)      1   90.000(    10)      2  180.000(    14)      0
      7      6  H        5   1.025714(     6)      6   87.160(    11)      1  179.982(    15)      0
 ---------------------------------------------------------------------------------------------------
                         Z-Matrix orientation:                         
 ---------------------------------------------------------------------
 Center     Atomic      Atomic             Coordinates (Angstroms)
 Number     Number       Type             X           Y           Z
 ---------------------------------------------------------------------
      1          6           0        0.000000    0.000000    0.000000
      2          1           0        0.000000    0.000000    1.092185
      3          1           0        1.010585    0.000000   -0.414023
      4          1           0       -0.616942   -0.798240   -0.418352
      5          1           0       -0.506864    1.050421   -0.341556
      6         -1           0       -0.384726    0.797302   -1.301250
      7          1           0       -0.927641    1.923158   -0.678254
 ---------------------------------------------------------------------
                    Distance matrix (angstroms):
                    1          2          3          4          5
     1  C    0.000000
     2  H    1.092185   0.000000
     3  H    1.092107   1.813820   0.000000
     4  H    1.092164   1.816460   1.812747   0.000000
     5  H    1.215301   1.848217   1.846968   1.853526   0.000000
     6  X    1.573835   2.551908   1.835689   1.838256   1.000000
     7  H    2.240331   2.773717   2.743187   2.751379   1.025714
                    6          7
     6  X    0.000000
     7  H    1.396579   0.000000
 Stoichiometry    CH5(2)
 Framework group  C1[X(CH5)]
 Deg. of freedom    12
 Full point group                 C1      NOp   1
 RotChk:  IX=0 Diff= 6.76D-01
 Largest Abelian subgroup         C1      NOp   1
 Largest concise Abelian subgroup C1      NOp   1
                         Standard orientation:                         
 ---------------------------------------------------------------------
 Center     Atomic      Atomic             Coordinates (Angstroms)
 Number     Number       Type             X           Y           Z
 ---------------------------------------------------------------------
      1          6           0       -0.229859   -0.000423   -0.000312
      2          1           0       -0.559405    0.967355   -0.384593
      3          1           0       -0.522562   -0.154031    1.040566
      4          1           0       -0.534504   -0.830730   -0.641096
      5          1           0        0.985157    0.023459   -0.011372
      6          1           0        2.010469   -0.003516   -0.001631
 ---------------------------------------------------------------------
 Rotational constants (GHZ):    152.3251005     62.3226676     62.2580371
 Leave Link  202 at Fri Aug 23 16:08:10 2019, MaxMem=  2684354560 cpu:         0.1
 (Enter /soft/gaussian/09-e.01/g09/l301.exe)
 Standard basis: 6-31G(d) (6D, 7F)
 Ernie: Thresh=  0.10000D-02 Tol=  0.10000D-05 Strict=F.
 There are    25 symmetry adapted cartesian basis functions of A   symmetry.
 There are    25 symmetry adapted basis functions of A   symmetry.
    25 basis functions,    48 primitive gaussians,    25 cartesian basis functions
     6 alpha electrons        5 beta electrons
       nuclear repulsion energy        15.5765399350 Hartrees.
 IExCor=  402 DFT=T Ex+Corr=B3LYP ExCW=0 ScaHFX=  0.200000
 ScaDFX=  0.800000  0.720000  1.000000  0.810000 ScalE2=  1.000000  1.000000
 IRadAn=      5 IRanWt=     -1 IRanGd=            0 ICorTp=0 IEmpDi=  4
 NAtoms=    6 NActive=    6 NUniq=    6 SFac= 1.00D+00 NAtFMM=   60 NAOKFM=F Big=F
 Integral buffers will be    131072 words long.
 Raffenetti 2 integral format.
 Two-electron integral symmetry is turned on.
 Leave Link  301 at Fri Aug 23 16:08:10 2019, MaxMem=  2684354560 cpu:         0.5
 (Enter /soft/gaussian/09-e.01/g09/l302.exe)
 NPDir=0 NMtPBC=     1 NCelOv=     1 NCel=       1 NClECP=     1 NCelD=      1
         NCelK=      1 NCelE2=     1 NClLst=     1 CellRange=     0.0.
 One-electron integrals computed using PRISM.
 NBasis=    25 RedAO= T EigKep=  1.27D-02  NBF=    25
 NBsUse=    25 1.00D-06 EigRej= -1.00D+00 NBFU=    25
 Precomputing XC quadrature grid using
 IXCGrd= 4 IRadAn=           5 IRanWt=          -1 IRanGd=           0 AccXCQ= 0.00D+00.
 Generated NRdTot=       0 NPtTot=           0 NUsed=           0 NTot=          32
 NSgBfM=    25    25    25    25    25 MxSgAt=     6 MxSgA2=     6.
 Leave Link  302 at Fri Aug 23 16:08:11 2019, MaxMem=  2684354560 cpu:         1.7
 (Enter /soft/gaussian/09-e.01/g09/l303.exe)
 DipDrv:  MaxL=1.
 Leave Link  303 at Fri Aug 23 16:08:11 2019, MaxMem=  2684354560 cpu:         0.2
 (Enter /soft/gaussian/09-e.01/g09/l401.exe)
 Initial guess from the checkpoint file:  "/blues/gpfs/home/elliott/Packages/PACC/moldriver/rcdriver/rundir/RXN/CH3.H2/MDUSDFXREFXETQ/0_0/2_1/UHFFFAOYSA-N/CH4.H/HXBDELFRWIQQII/0_0/1_2/UHFFFAOYSA-N/2/ezvlpJU/SCANS/R6/02/RUN/OPTI/A00/Gau-40464.chk"
 B after Tr=    -0.000000   -0.000000   -0.000000
         Rot=    0.973260    0.229674   -0.000993    0.003777 Ang=  26.56 deg.
 Guess basis will be translated and rotated to current coordinates.
 JPrj=2 DoOrth=T DoCkMO=T.
 Initial guess <Sx>= 0.0000 <Sy>= 0.0000 <Sz>= 0.5000 <S**2>= 0.7548 S= 0.5024
 Generating alternative initial guess.
 ExpMin= 1.61D-01 ExpMax= 3.05D+03 ExpMxC= 4.57D+02 IAcc=2 IRadAn=         4 AccDes= 0.00D+00
 Harris functional with IExCor=  402 and IRadAn=       4 diagonalized for initial guess.
 HarFok:  IExCor=  402 AccDes= 0.00D+00 IRadAn=         4 IDoV= 1 UseB2=F ITyADJ=14
 ICtDFT=  3500011 ScaDFX=  1.000000  1.000000  1.000000  1.000000
 FoFCou: FMM=F IPFlag=           0 FMFlag=      100000 FMFlg1=           0
         NFxFlg=           0 DoJE=T BraDBF=F KetDBF=T FulRan=T
         wScrn=  0.000000 ICntrl=     500 IOpCl=  0 I1Cent=   200000004 NGrid=           0
         NMat0=    1 NMatS0=      1 NMatT0=    0 NMatD0=    1 NMtDS0=    0 NMtDT0=    0
 Petite list used in FoFCou.
 Harris En= -41.0093083864426    
 Leave Link  401 at Fri Aug 23 16:08:11 2019, MaxMem=  2684354560 cpu:         2.2
 (Enter /soft/gaussian/09-e.01/g09/l502.exe)
 UHF open shell SCF:
 Using DIIS extrapolation, IDIIS=  1040.
 Integral symmetry usage will be decided dynamically.
 Keep R1 and R2 ints in memory in canonical form, NReq=976418.
 IVT=        8268 IEndB=        8268 NGot=  2684354560 MDV=  2684240343
 LenX=  2684240343 LenY=  2684239277
 Requested convergence on RMS density matrix=1.00D-08 within  64 cycles.
 Requested convergence on MAX density matrix=1.00D-06.
 Requested convergence on             energy=1.00D-06.
 No special actions if energy rises.
 FoFCou: FMM=F IPFlag=           0 FMFlag=           0 FMFlg1=           0
         NFxFlg=           0 DoJE=F BraDBF=F KetDBF=F FulRan=T
         wScrn=  0.000000 ICntrl=     600 IOpCl=  0 I1Cent=           0 NGrid=           0
         NMat0=    1 NMatS0=    325 NMatT0=    0 NMatD0=    1 NMtDS0=    0 NMtDT0=    0
 Symmetry not used in FoFCou.
 Integral accuracy reduced to 1.0D-05 until final iterations.

 Cycle   1  Pass 0  IDiag  1:
 E= -41.0045076205032    
 DIIS: error= 4.85D-03 at cycle   1 NSaved=   1.
 NSaved= 1 IEnMin= 1 EnMin= -41.0045076205032     IErMin= 1 ErrMin= 4.85D-03
 ErrMax= 4.85D-03  0.00D+00 EMaxC= 1.00D-01 BMatC= 1.31D-03 BMatP= 1.31D-03
 IDIUse=3 WtCom= 9.52D-01 WtEn= 4.85D-02
 Coeff-Com:  0.100D+01
 Coeff-En:   0.100D+01
 Coeff:      0.100D+01
 Gap=     1.916 Goal=   None    Shift=    0.000
 Gap=     2.025 Goal=   None    Shift=    0.000
 GapD=    1.916 DampG=2.000 DampE=1.000 DampFc=2.0000 IDamp=-1.
[...]
 Internal  Forces:  Max     0.015110384 RMS     0.003901597
 Leave Link  716 at Fri Aug 23 16:08:20 2019, MaxMem=  2684354560 cpu:         0.2
 (Enter /soft/gaussian/09-e.01/g09/l103.exe)

 GradGradGradGradGradGradGradGradGradGradGradGradGradGradGradGradGradGrad
 Berny optimization.
 Search for a local minimum.
 Step number   8 out of a maximum of   25
 All quantities printed in internal units (Hartrees-Bohrs-Radians)
 Update second derivatives using D2CorN and points    1    2    3    4    5
                                                          6    7    8
 DE= -2.90D-07 DEPred=-1.98D-07 R= 1.46D+00
 Trust test= 1.46D+00 RLast= 2.45D-03 DXMaxT set to 4.75D-01
 The second derivative matrix:
                          R1        R2        A2        R3        A3
           R1           0.34605
           R2           0.00020   0.34563
           A2           0.00075   0.00055   0.24201
           R3           0.00069   0.00039   0.00072   0.34640
           A3           0.00163   0.00133   0.03938   0.00275   0.24491
           D3           0.00299   0.00279  -0.06918   0.00473  -0.00332
           R4           0.00429   0.00414  -0.01858   0.00182  -0.02049
           A4          -0.00113  -0.00085   0.04204  -0.00281   0.04102
           D4           0.00147   0.00122   0.06354   0.00419  -0.06207
           D6          -0.00007  -0.00006  -0.02409  -0.00014   0.02395
           A6          -0.00021  -0.00124   0.00246   0.00072   0.00233
           R5           0.00000   0.00000  -0.00000  -0.00000   0.00000
           A5           0.00498   0.00536   0.00002   0.00492   0.01567
           D5          -0.00000  -0.00000  -0.00211  -0.00000   0.00211
           R6          -0.00004  -0.00025   0.00822  -0.00030   0.00568
                          D3        R4        A4        D4        D6
           D3           0.20309
           R4          -0.04407   0.22143
           A4           0.06545   0.00278   0.24038
           D4          -0.10989  -0.00431   0.00276   0.21159
           D6          -0.01321   0.00027   0.00009   0.02617   0.90147
           A6          -0.00169   0.01716   0.01463  -0.01042  -0.00079
           R5           0.00000  -0.00000  -0.00000   0.00000   0.00000
           A5           0.00939  -0.03444  -0.01314   0.02911  -0.00112
           D5          -0.00116   0.00002   0.00001   0.00228   0.07887
           R6           0.01785   0.05866  -0.00424   0.00519   0.00015
                          A6        R5        A5        D5        R6
           A6           0.02563
           R5           0.00000   0.00000
           A5           0.00871  -0.00000   0.16000
           D5          -0.00010   0.00000  -0.00000   0.00690
           R6          -0.00561  -0.00000   0.00000  -0.00000   0.16684
 ITU=  0  1  1  1  1  1  1  0
     Eigenvalues ---    0.02147   0.05511   0.12927   0.22974   0.23413
     Eigenvalues ---    0.32853   0.34554   0.34559   0.34748   0.38758
     Eigenvalues ---    0.904151000.000001000.000001000.000001000.00000
 RFO step:  Lambda=-2.76429518D-08 EMin= 2.14700632D-02
 Quartic linear search produced a step of  0.48199.
 Variable       Old X    -DE/DX   Delta X   Delta X   Delta X     New X
                                 (Linear)    (Quad)   (Total)
    R1        2.06246   0.00001   0.00001   0.00001   0.00002   2.06248
    R2        2.06247   0.00000   0.00001  -0.00000   0.00001   2.06248
    A2        1.95613  -0.00000  -0.00005   0.00001  -0.00004   1.95609
    R3        2.06253  -0.00001  -0.00003  -0.00000  -0.00003   2.06250
    A3        1.95586  -0.00000   0.00013   0.00001   0.00014   1.95600
    D3        2.21638   0.00001   0.00028   0.00006   0.00034   2.21672
    R4        2.29369  -0.00009  -0.00030  -0.00009  -0.00039   2.29330
    A4        1.86311  -0.00004  -0.00028  -0.00002  -0.00031   1.86280
    D4        4.24931   0.00005   0.00046   0.00005   0.00051   4.24982
    D6        3.14162   0.00000  -0.00001  -0.00000  -0.00001   3.14161
    A6        1.57051   0.00001   0.00096  -0.00090   0.00006   1.57057
    R5        1.88973  -0.00000   0.00000   0.00000   0.00000   1.88973
    A5        1.57080   0.00001   0.00000   0.00000   0.00000   1.57080
    D5        3.14159   0.00000   0.00000   0.00000   0.00000   3.14159
    R6        1.93832   0.01511   0.00000   0.00000   0.00000   1.93832
         Item               Value     Threshold  Converged?
 Maximum Force            0.000090     0.000450     YES
 RMS     Force            0.000035     0.000300     YES
 Maximum Displacement     0.000511     0.001800     YES
 RMS     Displacement     0.000208     0.001200     YES
 Predicted change in Energy=-3.689836D-08
 Optimization completed.
    -- Stationary point found.
                       ----------------------------
                       !   Optimized Parameters   !
                       ! (Angstroms and Degrees)  !
 ----------------------                            ----------------------
 !      Name          Value   Derivative information (Atomic Units)     !
 ------------------------------------------------------------------------
 !       R1          1.0914   -DE/DX =    0.0                           !
 !       R2          1.0914   -DE/DX =    0.0                           !
 !       A2        112.0781   -DE/DX =    0.0                           !
 !       R3          1.0914   -DE/DX =    0.0                           !
 !       A3        112.0627   -DE/DX =    0.0                           !
 !       D3        126.9894   -DE/DX =    0.0                           !
 !       R4          1.2138   -DE/DX =   -0.0001                        !
 !       A4        106.7484   -DE/DX =    0.0                           !
 !       D4        243.4675   -DE/DX =    0.0001                        !
 !       D6        180.0016   -DE/DX =    0.0                           !
 !       A6         89.9835   -DE/DX =    0.0                           !
 !       R5          1.0      -DE/DX =    0.0                           !
 !       A5         90.0      -DE/DX =    0.0                           !
 !       D5        180.0      -DE/DX =    0.0                           !
 !       R6          1.0257   -DE/DX =    0.0151                        !
 ------------------------------------------------------------------------
 Lowest energy point so far.  Saving SCF results.
 GradGradGradGradGradGradGradGradGradGradGradGradGradGradGradGradGradGrad

 Largest change from initial coordinates is atom    6       2.783 Angstoms.
 Leave Link  103 at Fri Aug 23 16:08:20 2019, MaxMem=  2684354560 cpu:         0.1
 (Enter /soft/gaussian/09-e.01/g09/l202.exe)
 ---------------------------------------------------------------------------------------------------
                            Z-MATRIX (ANGSTROMS AND DEGREES)
   CD    Cent   Atom    N1       Length/X        N2       Alpha/Y        N3        Beta/Z          J
 ---------------------------------------------------------------------------------------------------
      1      1  C 
      2      2  H        1   1.091407(     1)
      3      3  H        1   1.091414(     2)      2  112.078(     7)
      4      4  H        1   1.091445(     3)      2  112.063(     8)      3  126.989(    12)      0
      5      5  H        1   1.213767(     4)      2  106.748(     9)      3  243.468(    13)      0
      6         X        5   1.000000(     5)      1   90.000(    10)      2  180.000(    14)      0
      7      6  H        5   1.025714(     6)      6   89.983(    11)      1  180.002(    15)      0
 ---------------------------------------------------------------------------------------------------
                         Z-Matrix orientation:                         
 ---------------------------------------------------------------------
 Center     Atomic      Atomic             Coordinates (Angstroms)
 Number     Number       Type             X           Y           Z
 ---------------------------------------------------------------------
      1          6           0        0.000000    0.000000    0.000000
      2          1           0        0.000000    0.000000    1.091407
      3          1           0        1.011383    0.000000   -0.410230
      4          1           0       -0.608599   -0.807951   -0.409970
      5          1           0       -0.519196    1.039868   -0.349771
      6         -1           0       -0.390469    0.782048   -1.307350
      7          1           0       -0.957939    1.918537   -0.645634
 ---------------------------------------------------------------------
                    Distance matrix (angstroms):
                    1          2          3          4          5
     1  C    0.000000
     2  H    1.091407   0.000000
     3  H    1.091414   1.810472   0.000000
     4  H    1.091445   1.810334   1.810284   0.000000
     5  H    1.213767   1.851455   1.851392   1.850960   0.000000
     6  X    1.572651   2.553058   1.838916   1.838741   1.000000
     7  H    2.239481   2.759664   2.759425   2.758860   1.025714
                    6          7
     6  X    0.000000
     7  H    1.432305   0.000000
 Stoichiometry    CH5(2)
 Framework group  C1[X(CH5)]
 Deg. of freedom    12
 Full point group                 C1      NOp   1
 RotChk:  IX=2 Diff= 3.35D-16
 Largest Abelian subgroup         C1      NOp   1
 Largest concise Abelian subgroup C1      NOp   1
                         Standard orientation:                         
 ---------------------------------------------------------------------
 Center     Atomic      Atomic             Coordinates (Angstroms)
 Number     Number       Type             X           Y           Z
 ---------------------------------------------------------------------
      1          6           0       -0.228237    0.000012    0.000042
      2          1           0       -0.542934    0.965562    0.399854
      3          1           0       -0.542628   -0.829456    0.635907
      4          1           0       -0.541789   -0.136401   -1.036457
      5          1           0        0.985530    0.000173    0.000218
      6          1           0        2.011244    0.000048    0.000227
 ---------------------------------------------------------------------
 Rotational constants (GHZ):    153.0031954     62.2895951     62.2864335
 Leave Link  202 at Fri Aug 23 16:08:20 2019, MaxMem=  2684354560 cpu:         0.1
 (Enter /soft/gaussian/09-e.01/g09/l601.exe)
 Copying SCF densities to generalized density rwf, IOpCl= 1 IROHF=0.

 **********************************************************************

            Population analysis using the SCF density.

 **********************************************************************

 Orbital symmetries:
 Alpha Orbitals:
       Occupied  (A) (A) (A) (A) (A) (A)
       Virtual   (A) (A) (A) (A) (A) (A) (A) (A) (A) (A) (A) (A)
                 (A) (A) (A) (A) (A) (A) (A)
 Beta  Orbitals:
       Occupied  (A) (A) (A) (A) (A)
       Virtual   (A) (A) (A) (A) (A) (A) (A) (A) (A) (A) (A) (A)
                 (A) (A) (A) (A) (A) (A) (A) (A)
 The electronic state is 2-A.
 Alpha  occ. eigenvalues --  -10.18860  -0.70809  -0.45610  -0.40834  -0.40830
 Alpha  occ. eigenvalues --   -0.22718
 Alpha virt. eigenvalues --    0.11966   0.16762   0.16764   0.23248   0.52296
 Alpha virt. eigenvalues --    0.52297   0.55174   0.72213   0.88904   0.88909
 Alpha virt. eigenvalues --    0.92811   0.94788   1.21886   1.63675   1.63676
 Alpha virt. eigenvalues --    2.13622   2.21867   2.21874   4.18327
  Beta  occ. eigenvalues --  -10.18118  -0.68971  -0.41251  -0.40338  -0.40334
  Beta virt. eigenvalues --   -0.07621   0.12455   0.17226   0.17228   0.25898
  Beta virt. eigenvalues --    0.52504   0.52505   0.58115   0.79809   0.89477
  Beta virt. eigenvalues --    0.89483   0.95056   0.95736   1.23720   1.66051
  Beta virt. eigenvalues --    1.66052   2.16490   2.23064   2.23070   4.19905
          Condensed to atoms (all electrons):
               1          2          3          4          5          6
     1  C    5.299977   0.373813   0.373819   0.373809   0.261087  -0.140374
     2  H    0.373813   0.522701  -0.024493  -0.024505  -0.023333   0.003806
     3  H    0.373819  -0.024493   0.522717  -0.024510  -0.023347   0.003806
     4  H    0.373809  -0.024505  -0.024510   0.522795  -0.023388   0.003806
     5  H    0.261087  -0.023333  -0.023347  -0.023388   0.640613   0.121858
     6  H   -0.140374   0.003806   0.003806   0.003806   0.121858   1.027487
          Atomic-Atomic Spin Densities.
               1          2          3          4          5          6
     1  C    0.604400  -0.019569  -0.019567  -0.019579   0.042190  -0.162162
     2  H   -0.019569  -0.005228   0.003472   0.003474   0.002382   0.005905
     3  H   -0.019567   0.003472  -0.005238   0.003473   0.002385   0.005906
     4  H   -0.019579   0.003474   0.003473  -0.005245   0.002394   0.005912
     5  H    0.042190   0.002382   0.002385   0.002394  -0.143583  -0.032991
     6  H   -0.162162   0.005905   0.005906   0.005912  -0.032991   0.907645
 Mulliken charges and spin densities:
               1          2
     1  C   -0.542132   0.425713
     2  H    0.172011  -0.009564
     3  H    0.172008  -0.009569
     4  H    0.171992  -0.009571
     5  H    0.046510  -0.127223
     6  H   -0.020389   0.730215
 Sum of Mulliken charges =   0.00000   1.00000
 Mulliken charges and spin densities with hydrogens summed into heavy atoms:
               1          2
     1  C    0.000000   1.000000
 Electronic spatial extent (au):  <R**2>=             56.1251
 Charge=              0.0000 electrons
 Dipole moment (field-independent basis, Debye):
    X=             -0.7073    Y=             -0.0001    Z=             -0.0003  Tot=              0.7073
 Quadrupole moment (field-independent basis, Debye-Ang):
   XX=            -11.2331   YY=             -9.3391   ZZ=             -9.3400
   XY=             -0.0003   XZ=             -0.0009   YZ=             -0.0000
 Traceless Quadrupole moment (field-independent basis, Debye-Ang):
   XX=             -1.2623   YY=              0.6316   ZZ=              0.6307
   XY=             -0.0003   XZ=             -0.0009   YZ=             -0.0000
 Octapole moment (field-independent basis, Debye-Ang**2):
  XXX=             -5.8184  YYY=              0.2500  ZZZ=             -0.6061  XYY=             -1.4397
  XXY=              0.0001  XXZ=              0.0003  XZZ=             -1.4383  YZZ=             -0.2505
  YYZ=              0.6048  XYZ=              0.0000
 Hexadecapole moment (field-independent basis, Debye-Ang**3):
 XXXX=            -59.9709 YYYY=            -16.1207 ZZZZ=            -16.1204 XXXY=             -0.0008
 XXXZ=             -0.0027 YYYX=             -0.1737 YYYZ=             -0.0004 ZZZX=              0.4166
 ZZZY=              0.0003 XXYY=            -11.5110 XXZZ=            -11.5124 YYZZ=             -5.3740
 XXYZ=             -0.0000 YYXZ=             -0.4191 ZZXY=              0.1730
 N-N= 1.558665866805D+01 E-N=-1.250967378757D+02  KE= 4.060351687975D+01
                          Isotropic Fermi Contact Couplings
        Atom                 a.u.       MegaHertz       Gauss      10(-4) cm-1
     1  C(13)              0.17209     193.45880      69.03091      64.53091
     2  H(1)              -0.00375     -16.77158      -5.98452      -5.59440
     3  H(1)              -0.00376     -16.78467      -5.98919      -5.59876
     4  H(1)              -0.00376     -16.80821      -5.99759      -5.60661
     5  H(1)              -0.02745    -122.67706     -43.77422     -40.92066
     6  H(1)               0.23793    1063.52520     379.49222     354.75382
 --------------------------------------------------------
       Center         ----  Spin Dipole Couplings  ----
                      3XX-RR        3YY-RR        3ZZ-RR
 --------------------------------------------------------
     1   Atom        0.481717     -0.240864     -0.240853
     2   Atom        0.004505      0.017744     -0.022248
     3   Atom        0.004499      0.005095     -0.009593
     4   Atom        0.004478     -0.029562      0.025084
     5   Atom        0.224385     -0.112193     -0.112192
     6   Atom       -0.018692      0.009346      0.009346
 --------------------------------------------------------
                        XY            XZ            YZ
 --------------------------------------------------------
     1   Atom        0.000145      0.000362     -0.000000
     2   Atom       -0.016405     -0.006782      0.019986
     3   Atom        0.014094     -0.010787     -0.027305
     4   Atom        0.002317      0.017581      0.007319
     5   Atom       -0.000005     -0.000002     -0.000000
     6   Atom        0.000004      0.000000      0.000000
 --------------------------------------------------------


 ---------------------------------------------------------------------------------
              Anisotropic Spin Dipole Couplings in Principal Axis System
 ---------------------------------------------------------------------------------

       Atom             a.u.   MegaHertz   Gauss  10(-4) cm-1        Axes

              Baa    -0.2409   -32.322   -11.533   -10.781 -0.0002  0.9993  0.0376
     1 C(13)  Bbb    -0.2409   -32.320   -11.533   -10.781 -0.0005 -0.0376  0.9993
              Bcc     0.4817    64.642    23.066    21.562  1.0000  0.0002  0.0005
 
              Baa    -0.0305   -16.286    -5.811    -5.432 -0.0003 -0.3827  0.9239
     2 H(1)   Bbb    -0.0055    -2.932    -1.046    -0.978  0.8713  0.4533  0.1881
              Bcc     0.0360    19.218     6.857     6.410 -0.4908  0.8050  0.3333
 
              Baa    -0.0305   -16.286    -5.811    -5.433 -0.0005  0.6085  0.7936
     3 H(1)   Bbb    -0.0055    -2.932    -1.046    -0.978  0.8714 -0.3891  0.2989
              Bcc     0.0360    19.218     6.857     6.410  0.4906  0.6916 -0.5300
 
              Baa    -0.0305   -16.287    -5.812    -5.433 -0.0001  0.9915 -0.1305
     4 H(1)   Bbb    -0.0055    -2.931    -1.046    -0.978  0.8717 -0.0638 -0.4859
              Bcc     0.0360    19.217     6.857     6.410  0.4901  0.1138  0.8642
 
              Baa    -0.1122   -59.861   -21.360   -19.967  0.0000  0.9879  0.1548
     5 H(1)   Bbb    -0.1122   -59.860   -21.360   -19.967  0.0000 -0.1548  0.9879
              Bcc     0.2244   119.721    42.720    39.935  1.0000 -0.0000 -0.0000
 
              Baa    -0.0187    -9.973    -3.559    -3.327  1.0000 -0.0001 -0.0000
     6 H(1)   Bbb     0.0093     4.987     1.779     1.663  0.0001  0.9993 -0.0364
              Bcc     0.0093     4.987     1.779     1.663  0.0000  0.0364  0.9993
 

 ---------------------------------------------------------------------------------

 No NMR shielding tensors so no spin-rotation constants.
 Leave Link  601 at Fri Aug 23 16:08:21 2019, MaxMem=  2684354560 cpu:         3.1
 (Enter /soft/gaussian/09-e.01/g09/l9999.exe)
 1\1\GINC-BLUESLOGIN2\POpt\UB3LYP\6-31G(d)\C1H5(2)\ELLIOTT\23-Aug-2019\
 1\\#P b3lyp/6-31g* # SCF=(xqc) # POpt=() # int=ultrafine\\comment:\\0,
 2\C\H,1,R1\H,1,R2,2,A2\H,1,R3,2,A3,3,D3,0\H,1,R4,2,A4,3,D4,0\X,5,R5,1,
 A5,2,D5,0\H,5,R6,6,A6,1,D6,0\\R1=1.09140745\R2=1.091414\A2=112.0781003
 6\R3=1.09144508\A3=112.06270419\D3=126.98936587\R4=1.21376693\A4=106.7
 4842708\D4=243.46750501\D6=180.00164459\A6=89.983473\R5=1.\A5=90.\D5=1
 80.\R6=1.025714\\Version=ES64L-G09RevE.01\State=2-A\HF=-41.0053307\S2=
 0.755498\S2-1=0.\S2A=0.750006\RMSD=8.287e-09\RMSF=5.052e-03\Dipole=0.1
 189737,-0.2384456,0.0801577\Quadrupole=0.2118716,-0.5645406,0.3526691,
 0.5155668,-0.1735624,0.3474173\PG=C01 [X(C1H5)]\\@


 HE THAT IS UNAWARE OF HIS IGNORANCE WILL BE MISLED BY HIS KNOWLEDGE.

                                        -- WHATLEY
 Job cpu time:       0 days  0 hours  2 minutes  1.3 seconds.
 File lengths (MBytes):  RWF=     72 Int=      0 D2E=      0 Chk=      2 Scr=      2
 Normal termination of Gaussian 09 at Fri Aug 23 16:08:21 2019.
