
    -----------------------------------------------------------------------
          Psi4: An Open-Source Ab Initio Electronic Structure Package
                               Psi4 1.3.2 release

                         Git: Rev {HEAD} ecbda83 


    R. M. Parrish, L. A. Burns, D. G. A. Smith, A. C. Simmonett,
    A. E. DePrince III, E. G. Hohenstein, U. Bozkaya, A. Yu. Sokolov,
    R. Di Remigio, R. M. Richard, J. F. Gonthier, A. M. James,
    H. R. McAlexander, A. Kumar, M. Saitow, X. Wang, B. P. Pritchard,
    P. Verma, H. F. Schaefer III, K. Patkowski, R. A. King, E. F. Valeev,
    F. A. Evangelista, J. M. Turney, T. D. Crawford, and C. D. Sherrill,
    J. Chem. Theory Comput. 13(7) pp 3185--3197 (2017).
    (doi: 10.1021/acs.jctc.7b00174)


                         Additional Contributions by
    P. Kraus, H. Kruse, M. H. Lechner, M. C. Schieber, R. A. Shaw,
    A. Alenaizan, R. Galvelis, Z. L. Glick, S. Lehtola, and J. P. Misiewicz

    -----------------------------------------------------------------------


    Psi4 started on: Monday, 09 September 2019 03:57PM

    Process ID: 8039
    Host:       Ewan
    PSIDATADIR: /home/snelliott/miniconda/envs/pacc-env-mini/share/psi4
    Memory:     500.0 MiB
    Threads:    1
    
  ==> Input File <==

--------------------------------------------------------------------------
#! 
memory 1 GB

molecule {

0 1
O  
H  1    R1 
H  1    R2  2    A2 
R1   =   0.968998
R2   =   0.969003
A2   = 103.978000
}
set basis cc-pvdz
set scf_type pk
set reference rks
set mp2_type conv
optimize('B3LYP')
--------------------------------------------------------------------------

  Memory set to 953.674 MiB by Python driver.
gradient() will perform analytic gradient computation.

*** tstart() called on Ewan
*** at Mon Sep  9 15:57:01 2019

   => Loading Basis Set <=

    Name: CC-PVDZ
    Role: ORBITAL
    Keyword: BASIS
    atoms 1   entry O          line   198 file /home/snelliott/miniconda/envs/pacc-env-mini/share/psi4/basis/cc-pvdz.gbs 
    atoms 2-3 entry H          line    22 file /home/snelliott/miniconda/envs/pacc-env-mini/share/psi4/basis/cc-pvdz.gbs 


         ---------------------------------------------------------
                                   SCF
               by Justin Turney, Rob Parrish, Andy Simmonett
                          and Daniel G. A. Smith
                              RKS Reference
                        1 Threads,    953 MiB Core
         ---------------------------------------------------------

  ==> Geometry <==

    Molecular point group: cs
    Full point group: Cs

    Geometry (in Angstrom), charge = 0, multiplicity = 1:

       Center              X                  Y                   Z               Mass       
    ------------   -----------------  -----------------  -----------------  -----------------
         O            0.052617304366     0.041125134267     0.000000000000    15.994914619570
         H            0.052617304366    -0.927872865733     0.000000000000     1.007825032230
         H           -0.887692107957     0.275187141237     0.000000000000     1.007825032230

  Running in cs symmetry.

  Rotational constants: A =     26.44730  B =     14.34826  C =      9.30182 [cm^-1]
  Rotational constants: A = 792870.22518  B = 430150.15397  C = 278861.46074 [MHz]
  Nuclear repulsion =    9.084261058726666

  Charge       = 0
  Multiplicity = 1
  Electrons    = 10
  Nalpha       = 5
  Nbeta        = 5

  ==> Algorithm <==

  SCF Algorithm Type is PK.
  DIIS enabled.
  MOM disabled.
  Fractional occupation disabled.
  Guess Type is SAD.
  Energy threshold   = 1.00e-08
  Density threshold  = 1.00e-08
  Integral threshold = 0.00e+00

  ==> Primary Basis <==

  Basis Set: CC-PVDZ
    Blend: CC-PVDZ
    Number of shells: 12
    Number of basis function: 24
    Number of Cartesian functions: 25
    Spherical Harmonics?: true
    Max angular momentum: 2

  ==> DFT Potential <==

   => Composite Functional: B3LYP <= 

    B3LYP Hyb-GGA Exchange-Correlation Functional

    P. J. Stephens, F. J. Devlin, C. F. Chabalowski, and M. J. Frisch, J. Phys. Chem. 98, 11623 (1994)

    Deriv               =              1
    GGA                 =           TRUE
    Meta                =          FALSE

    Exchange Hybrid     =           TRUE
    MP2 Hybrid          =          FALSE

   => Exchange Functionals <=

    0.0800   Slater exchange
    0.7200         Becke 88

   => Exact (HF) Exchange <=

    0.2000               HF 

   => Correlation Functionals <=

    0.1900   Vosko, Wilk & Nusair (VWN5_RPA)
    0.8100   Lee, Yang & Parr

   => Molecular Quadrature <=

    Radial Scheme          =       TREUTLER
    Pruning Scheme         =           FLAT
    Nuclear Scheme         =       TREUTLER

    BS radius alpha        =              1
    Pruning alpha          =              1
    Radial Points          =             75
    Spherical Points       =            302
    Total Points           =          66409
    Total Blocks           =            560
    Max Points             =            256
    Max Functions          =             24

  ==> Pre-Iterations <==

   -------------------------------------------------------
    Irrep   Nso     Nmo     Nalpha   Nbeta   Ndocc  Nsocc
   -------------------------------------------------------
     A'        18      18       0       0       0       0
     A"         6       6       0       0       0       0
   -------------------------------------------------------
    Total      24      24       5       5       5       0
   -------------------------------------------------------

  ==> Integral Setup <==

  Using in-core PK algorithm.
   Calculation information:
      Number of atoms:                   3
      Number of AO shells:              12
      Number of primitives:             32
      Number of atomic orbitals:        25
      Number of basis functions:        24

      Integral cutoff                 1.00e-12
      Number of threads:                 1

  Performing in-core PK
  Using 90300 doubles for integral storage.
  We computed 3081 shell quartets total.
  Whereas there are 3081 unique shell quartets.

  ==> DiskJK: Disk-Based J/K Matrices <==

    J tasked:                  Yes
    K tasked:                  Yes
    wK tasked:                  No
    Memory [MiB]:              669
    Schwarz Cutoff:          1E-12

    OpenMP threads:              1

  Cached 100.0% of DFT collocation blocks in 0.044 [GiB].

  Minimum eigenvalue in the overlap matrix is 3.4948995761E-02.
  Using Symmetric Orthogonalization.

  SCF Guess: Superposition of Atomic Densities via on-the-fly atomic UHF.

  ==> Iterations <==

                        Total Energy        Delta E     RMS |[F,P]|

   @RKS iter SAD:   -76.09842937424145   -7.60984e+01   0.00000e+00 
   @RKS iter   1:   -76.27305059444166   -1.74621e-01   3.33757e-02 DIIS
   @RKS iter   2:   -76.12444017995088    1.48610e-01   4.68244e-02 DIIS
   @RKS iter   3:   -76.42053033341320   -2.96090e-01   5.30658e-04 DIIS
   @RKS iter   4:   -76.42058499186184   -5.46584e-05   1.20598e-04 DIIS
   @RKS iter   5:   -76.42058666239836   -1.67054e-06   2.18872e-05 DIIS
   @RKS iter   6:   -76.42058672266154   -6.02632e-08   9.47100e-07 DIIS
   @RKS iter   7:   -76.42058672281266   -1.51118e-10   8.40645e-08 DIIS
   @RKS iter   8:   -76.42058672281399   -1.33582e-12   5.99658e-09 DIIS
  Energy and wave function converged.


  ==> Post-Iterations <==

    Orbital Energies [Eh]
    ---------------------

    Doubly Occupied:                                                      

       1Ap   -19.124128     2Ap    -0.990756     3Ap    -0.508865  
       4Ap    -0.364898     1App   -0.287339  

    Virtual:                                                              

       5Ap     0.049386     6Ap     0.125132     7Ap     0.552858  
       8Ap     0.606835     9Ap     0.902227     2App    0.918413  
      10Ap     0.995309    11Ap     1.201706     3App    1.232414  
       4App    1.423101    12Ap     1.593726    13Ap     1.662589  
      14Ap     2.091454    15Ap     2.129116     5App    2.914436  
       6App    2.954159    16Ap     3.120582    17Ap     3.453249  
      18Ap     3.728369  

    Final Occupation by Irrep:
             Ap   App 
    DOCC [     4,    1 ]

  @RKS Final Energy:   -76.42058672281399

   => Energetics <=

    Nuclear Repulsion Energy =              9.0842610587266659
    One-Electron Energy =                -123.0243802827087762
    Two-Electron Energy =                  45.0888250780216566
    DFT Exchange-Correlation Energy =      -7.5692925768535355
    Empirical Dispersion Energy =           0.0000000000000000
    VV10 Nonlocal Energy =                  0.0000000000000000
    Total Energy =                        -76.4205867228139937

Computation Completed


Properties will be evaluated at   0.000000,   0.000000,   0.000000 [a0]

Properties computed using the SCF density matrix

  Nuclear Dipole Moment: [e a0]
     X:    -0.7826      Y:    -0.6117      Z:     0.0000

  Electronic Dipole Moment: [e a0]
     X:     0.1869      Y:     0.1461      Z:     0.0000

  Dipole Moment: [e a0]
     X:    -0.5957      Y:    -0.4656      Z:     0.0000     Total:     0.7561

  Dipole Moment: [D]
     X:    -1.5141      Y:    -1.1834      Z:     0.0000     Total:     1.9217


*** tstop() called on Ewan at Mon Sep  9 15:57:03 2019
Module time:
	user time   =       1.40 seconds =       0.02 minutes
	system time =       0.05 seconds =       0.00 minutes
	total time  =          2 seconds =       0.03 minutes
Total time:
	user time   =       1.40 seconds =       0.02 minutes
	system time =       0.05 seconds =       0.00 minutes
	total time  =          2 seconds =       0.03 minutes

*** tstart() called on Ewan
*** at Mon Sep  9 15:57:03 2019


         ------------------------------------------------------------
                                   SCF GRAD                          
                          Rob Parrish, Justin Turney,                
                       Andy Simmonett, and Alex Sokolov              
         ------------------------------------------------------------

  ==> Geometry <==

    Molecular point group: cs
    Full point group: Cs

    Geometry (in Angstrom), charge = 0, multiplicity = 1:

       Center              X                  Y                   Z               Mass       
    ------------   -----------------  -----------------  -----------------  -----------------
         O            0.052617304366     0.041125134267     0.000000000000    15.994914619570
         H            0.052617304366    -0.927872865733     0.000000000000     1.007825032230
         H           -0.887692107957     0.275187141237     0.000000000000     1.007825032230

  Nuclear repulsion =    9.084261058726666

  ==> Basis Set <==

  Basis Set: CC-PVDZ
    Blend: CC-PVDZ
    Number of shells: 12
    Number of basis function: 24
    Number of Cartesian functions: 25
    Spherical Harmonics?: true
    Max angular momentum: 2

  ==> DirectJKGrad: Integral-Direct SCF Gradients <==

    Gradient:                    1
    J tasked:                  Yes
    K tasked:                  Yes
    wK tasked:                  No
    Integrals threads:           1
    Schwarz Cutoff:          0E+00

  ==> DFT Potential <==

   => Composite Functional: B3LYP <= 

    B3LYP Hyb-GGA Exchange-Correlation Functional

    P. J. Stephens, F. J. Devlin, C. F. Chabalowski, and M. J. Frisch, J. Phys. Chem. 98, 11623 (1994)

    Deriv               =              1
    GGA                 =           TRUE
    Meta                =          FALSE

    Exchange Hybrid     =           TRUE
    MP2 Hybrid          =          FALSE

   => Exchange Functionals <=

    0.0800   Slater exchange
    0.7200         Becke 88

   => Exact (HF) Exchange <=

    0.2000               HF 

   => Correlation Functionals <=

    0.1900   Vosko, Wilk & Nusair (VWN5_RPA)
    0.8100   Lee, Yang & Parr

   => Molecular Quadrature <=

    Radial Scheme          =       TREUTLER
    Pruning Scheme         =           FLAT
    Nuclear Scheme         =       TREUTLER

    BS radius alpha        =              1
    Pruning alpha          =              1
    Radial Points          =             75
    Spherical Points       =            302
    Total Points           =          66409
    Total Blocks           =            560
    Max Points             =            256
    Max Functions          =             24


  -Total Gradient:
     Atom            X                  Y                   Z
    ------   -----------------  -----------------  -----------------
       1       -0.001437582712    -0.001128564896     0.000000000000
       2        0.001988752239    -0.001042824262     0.000000000000
       3       -0.000536380223     0.002182944382     0.000000000000


*** tstop() called on Ewan at Mon Sep  9 15:57:03 2019
Module time:
	user time   =       0.27 seconds =       0.00 minutes
	system time =       0.00 seconds =       0.00 minutes
	total time  =          0 seconds =       0.00 minutes
Total time:
	user time   =       1.67 seconds =       0.03 minutes
	system time =       0.05 seconds =       0.00 minutes
	total time  =          2 seconds =       0.03 minutes

			-----------------------------------------
			 OPTKING 2.0: for geometry optimizations 
			  - R.A. King,  Bethel University        
			-----------------------------------------

	Internal coordinates to be generated automatically.
	Detected frag 1 with atoms:  1 2 3
	---Fragment 1 Bond Connectivity---
	 1 : 2 3
	 2 : 1
	 3 : 1

	---Fragment 1 Geometry and Gradient---
	 O           0.0994322947        0.0777152406        0.0000000000
	 H           0.0994322947       -1.7534255955        0.0000000000
	 H          -1.6774949678        0.5200283302        0.0000000000
	            -0.0014375827       -0.0011285649        0.0000000000
	             0.0019887522       -0.0010428243        0.0000000000
	            -0.0005363802        0.0021829444        0.0000000000

	Previous optimization step data not found.  Starting new optimization.

	---Fragment 1 Intrafragment Coordinates---
	 - Coordinate -           - BOHR/RAD -       - ANG/DEG -
	 R(1,2)           =         1.831141	       0.968998
	 R(1,3)           =         1.831150	       0.969003
	 B(2,1,3)         =         1.814758	     103.978000

	Current energy   :       -76.4205867228

	Generating empirical Hessian (Schlegel '84) for each fragment.
	Taking RFO optimization step.
	Going to follow RFO solution 1.
	Using RFO vector 1.
	Norm of target step-size    0.02286
	Projected energy change by RFO approximation:        -0.0000845701

	Back-transformation to cartesian coordinates...
	Successfully converged to displaced geometry.

	--- Internal Coordinate Step in ANG or DEG, aJ/ANG or AJ/DEG ---
	 ---------------------------------------------------------------------------
	   Coordinate                Previous        Force       Change         New 
	   ----------                --------       ------       ------       ------
	    1 R(1,2)          =      0.968998    -0.008623    -0.001034     0.967964
	    2 R(1,3)          =      0.969003    -0.008664    -0.001038     0.967965
	    3 B(2,1,3)        =    103.978000    -0.000276    -1.300147   102.677853
	 ---------------------------------------------------------------------------
	Successfully symmetrized geometry.

  ==> Convergence Check <==

  Measures of convergence in internal coordinates in au.
  Criteria marked as inactive (o), active & met (*), and active & unmet ( ).
  --------------------------------------------------------------------------------------------- ~
   Step     Total Energy     Delta E     MAX Force     RMS Force      MAX Disp      RMS Disp    ~
  --------------------------------------------------------------------------------------------- ~
    Convergence Criteria    1.00e-06 *    3.00e-04 *             o    1.20e-03 *             o  ~
  --------------------------------------------------------------------------------------------- ~
      1     -76.42058672   -7.64e+01      3.63e-03      2.27e-03 o    2.27e-02      1.32e-02 o  ~
  ---------------------------------------------------------------------------------------------

	Writing optimization data to binary file.
	Structure for next step:
	Cartesian Geometry (in Angstrom)
	    O     0.0568059707   0.0444011682   0.0000000000
	    H     0.0458248013  -0.9235010086   0.0000000000
	    H    -0.8850882682   0.2675392526   0.0000000000
			--------------------------
			 OPTKING Finished Execution 
			--------------------------

    Structure for next step:
    Molecular point group: cs
    Full point group: Cs

    Geometry (in Angstrom), charge = 0, multiplicity = 1:

    O       
    H             1          R1
    H             1          R2      2          A2

    A2        =  102.6778528603
    R1        =    0.9679644711
    R2        =    0.9679645496

gradient() will perform analytic gradient computation.

*** tstart() called on Ewan
*** at Mon Sep  9 15:57:03 2019

   => Loading Basis Set <=

    Name: CC-PVDZ
    Role: ORBITAL
    Keyword: BASIS
    atoms 1   entry O          line   198 file /home/snelliott/miniconda/envs/pacc-env-mini/share/psi4/basis/cc-pvdz.gbs 
    atoms 2-3 entry H          line    22 file /home/snelliott/miniconda/envs/pacc-env-mini/share/psi4/basis/cc-pvdz.gbs 


         ---------------------------------------------------------
                                   SCF
               by Justin Turney, Rob Parrish, Andy Simmonett
                          and Daniel G. A. Smith
                              RKS Reference
                        1 Threads,    953 MiB Core
         ---------------------------------------------------------

  ==> Geometry <==

    Molecular point group: cs
    Full point group: Cs

    Geometry (in Angstrom), charge = 0, multiplicity = 1:

       Center              X                  Y                   Z               Mass       
    ------------   -----------------  -----------------  -----------------  -----------------
         O            0.052844247009     0.042277307138     0.000000000000    15.994914619570
         H            0.052844247009    -0.925687163926     0.000000000000     1.007825032230
         H           -0.891520795039     0.254715619862     0.000000000000     1.007825032230

  Running in cs symmetry.

  Rotational constants: A =     25.75418  B =     14.63935  C =      9.33378 [cm^-1]
  Rotational constants: A = 772091.00708  B = 438876.56119  C = 279819.75322 [MHz]
  Nuclear repulsion =    9.097110488461933

  Charge       = 0
  Multiplicity = 1
  Electrons    = 10
  Nalpha       = 5
  Nbeta        = 5

  ==> Algorithm <==

  SCF Algorithm Type is PK.
  DIIS enabled.
  MOM disabled.
  Fractional occupation disabled.
  Guess Type is READ.
  Energy threshold   = 1.00e-08
  Density threshold  = 1.00e-08
  Integral threshold = 0.00e+00

  ==> Primary Basis <==

  Basis Set: CC-PVDZ
    Blend: CC-PVDZ
    Number of shells: 12
    Number of basis function: 24
    Number of Cartesian functions: 25
    Spherical Harmonics?: true
    Max angular momentum: 2

  ==> DFT Potential <==

   => Composite Functional: B3LYP <= 

    B3LYP Hyb-GGA Exchange-Correlation Functional

    P. J. Stephens, F. J. Devlin, C. F. Chabalowski, and M. J. Frisch, J. Phys. Chem. 98, 11623 (1994)

    Deriv               =              1
    GGA                 =           TRUE
    Meta                =          FALSE

    Exchange Hybrid     =           TRUE
    MP2 Hybrid          =          FALSE

   => Exchange Functionals <=

    0.0800   Slater exchange
    0.7200         Becke 88

   => Exact (HF) Exchange <=

    0.2000               HF 

   => Correlation Functionals <=

    0.1900   Vosko, Wilk & Nusair (VWN5_RPA)
    0.8100   Lee, Yang & Parr

   => Molecular Quadrature <=

    Radial Scheme          =       TREUTLER
    Pruning Scheme         =           FLAT
    Nuclear Scheme         =       TREUTLER

    BS radius alpha        =              1
    Pruning alpha          =              1
    Radial Points          =             75
    Spherical Points       =            302
    Total Points           =          66405
    Total Blocks           =            561
    Max Points             =            256
    Max Functions          =             24

   => Loading Basis Set <=

    Name: CC-PVDZ
    Role: ORBITAL
    Keyword: BASIS
    atoms 1   entry O          line   198 file /home/snelliott/miniconda/envs/pacc-env-mini/share/psi4/basis/cc-pvdz.gbs 
    atoms 2-3 entry H          line    22 file /home/snelliott/miniconda/envs/pacc-env-mini/share/psi4/basis/cc-pvdz.gbs 

  Reading orbitals from file 180, no projection.

  ==> Pre-Iterations <==

   -------------------------------------------------------
    Irrep   Nso     Nmo     Nalpha   Nbeta   Ndocc  Nsocc
   -------------------------------------------------------
     A'        18      18       0       0       0       0
     A"         6       6       0       0       0       0
   -------------------------------------------------------
    Total      24      24       5       5       5       0
   -------------------------------------------------------

  ==> Integral Setup <==

  Using in-core PK algorithm.
   Calculation information:
      Number of atoms:                   3
      Number of AO shells:              12
      Number of primitives:             32
      Number of atomic orbitals:        25
      Number of basis functions:        24

      Integral cutoff                 1.00e-12
      Number of threads:                 1

  Performing in-core PK
  Using 90300 doubles for integral storage.
  We computed 3081 shell quartets total.
  Whereas there are 3081 unique shell quartets.

  ==> DiskJK: Disk-Based J/K Matrices <==

    J tasked:                  Yes
    K tasked:                  Yes
    wK tasked:                  No
    Memory [MiB]:              669
    Schwarz Cutoff:          1E-12

    OpenMP threads:              1

  Cached 100.0% of DFT collocation blocks in 0.044 [GiB].

  Minimum eigenvalue in the overlap matrix is 3.4686619876E-02.
  Using Symmetric Orthogonalization.

  SCF Guess: Orbitals guess was supplied from a previous computation.

  ==> Iterations <==

                        Total Energy        Delta E     RMS |[F,P]|

   @RKS iter   0:   -76.42109662241748   -7.64211e+01   5.32372e-04 
   @RKS iter   1:   -76.42062345984981    4.73163e-04   1.48238e-04 DIIS
   @RKS iter   2:   -76.42062449169083   -1.03184e-06   1.11396e-04 DIIS
   @RKS iter   3:   -76.42062586016188   -1.36847e-06   4.07220e-05 DIIS
   @RKS iter   4:   -76.42062607024694   -2.10085e-07   2.90774e-06 DIIS
   @RKS iter   5:   -76.42062607141833   -1.17139e-09   3.04885e-07 DIIS
   @RKS iter   6:   -76.42062607143427   -1.59446e-11   5.29129e-08 DIIS
   @RKS iter   7:   -76.42062607143455   -2.84217e-13   3.71024e-09 DIIS
  Energy and wave function converged.


  ==> Post-Iterations <==

    Orbital Energies [Eh]
    ---------------------

    Doubly Occupied:                                                      

       1Ap   -19.124637     2Ap    -0.992251     3Ap    -0.506981  
       4Ap    -0.367593     1App   -0.287812  

    Virtual:                                                              

       5Ap     0.049373     6Ap     0.125355     7Ap     0.549929  
       8Ap     0.612374     9Ap     0.903937     2App    0.918142  
      10Ap     0.996200    11Ap     1.190036     3App    1.236697  
       4App    1.416301    12Ap     1.590669    13Ap     1.670798  
      14Ap     2.091386    15Ap     2.133240     5App    2.921536  
       6App    2.950481    16Ap     3.125304    17Ap     3.445958  
      18Ap     3.736292  

    Final Occupation by Irrep:
             Ap   App 
    DOCC [     4,    1 ]

  @RKS Final Energy:   -76.42062607143455

   => Energetics <=

    Nuclear Repulsion Energy =              9.0971104884619329
    One-Electron Energy =                -123.0430434193178826
    Two-Electron Energy =                  45.0953792897012775
    DFT Exchange-Correlation Energy =      -7.5700724302798834
    Empirical Dispersion Energy =           0.0000000000000000
    VV10 Nonlocal Energy =                  0.0000000000000000
    Total Energy =                        -76.4206260714345547

Computation Completed


Properties will be evaluated at   0.000000,   0.000000,   0.000000 [a0]

Properties computed using the SCF density matrix

  Nuclear Dipole Moment: [e a0]
     X:    -0.7860      Y:    -0.6288      Z:     0.0000

  Electronic Dipole Moment: [e a0]
     X:     0.1905      Y:     0.1524      Z:     0.0000

  Dipole Moment: [e a0]
     X:    -0.5955      Y:    -0.4764      Z:     0.0000     Total:     0.7626

  Dipole Moment: [D]
     X:    -1.5136      Y:    -1.2110      Z:     0.0000     Total:     1.9384


*** tstop() called on Ewan at Mon Sep  9 15:57:04 2019
Module time:
	user time   =       1.13 seconds =       0.02 minutes
	system time =       0.02 seconds =       0.00 minutes
	total time  =          1 seconds =       0.02 minutes
Total time:
	user time   =       2.81 seconds =       0.05 minutes
	system time =       0.07 seconds =       0.00 minutes
	total time  =          3 seconds =       0.05 minutes

*** tstart() called on Ewan
*** at Mon Sep  9 15:57:04 2019


         ------------------------------------------------------------
                                   SCF GRAD                          
                          Rob Parrish, Justin Turney,                
                       Andy Simmonett, and Alex Sokolov              
         ------------------------------------------------------------

  ==> Geometry <==

    Molecular point group: cs
    Full point group: Cs

    Geometry (in Angstrom), charge = 0, multiplicity = 1:

       Center              X                  Y                   Z               Mass       
    ------------   -----------------  -----------------  -----------------  -----------------
         O            0.052844247009     0.042277307138     0.000000000000    15.994914619570
         H            0.052844247009    -0.925687163926     0.000000000000     1.007825032230
         H           -0.891520795039     0.254715619862     0.000000000000     1.007825032230

  Nuclear repulsion =    9.097110488461933

  ==> Basis Set <==

  Basis Set: CC-PVDZ
    Blend: CC-PVDZ
    Number of shells: 12
    Number of basis function: 24
    Number of Cartesian functions: 25
    Spherical Harmonics?: true
    Max angular momentum: 2

  ==> DirectJKGrad: Integral-Direct SCF Gradients <==

    Gradient:                    1
    J tasked:                  Yes
    K tasked:                  Yes
    wK tasked:                  No
    Integrals threads:           1
    Schwarz Cutoff:          0E+00

  ==> DFT Potential <==

   => Composite Functional: B3LYP <= 

    B3LYP Hyb-GGA Exchange-Correlation Functional

    P. J. Stephens, F. J. Devlin, C. F. Chabalowski, and M. J. Frisch, J. Phys. Chem. 98, 11623 (1994)

    Deriv               =              1
    GGA                 =           TRUE
    Meta                =          FALSE

    Exchange Hybrid     =           TRUE
    MP2 Hybrid          =          FALSE

   => Exchange Functionals <=

    0.0800   Slater exchange
    0.7200         Becke 88

   => Exact (HF) Exchange <=

    0.2000               HF 

   => Correlation Functionals <=

    0.1900   Vosko, Wilk & Nusair (VWN5_RPA)
    0.8100   Lee, Yang & Parr

   => Molecular Quadrature <=

    Radial Scheme          =       TREUTLER
    Pruning Scheme         =           FLAT
    Nuclear Scheme         =       TREUTLER

    BS radius alpha        =              1
    Pruning alpha          =              1
    Radial Points          =             75
    Spherical Points       =            302
    Total Points           =          66405
    Total Blocks           =            561
    Max Points             =            256
    Max Functions          =             24


  -Total Gradient:
     Atom            X                  Y                   Z
    ------   -----------------  -----------------  -----------------
       1       -0.000506552125    -0.000405339350     0.000000000000
       2       -0.000133583038     0.000698365726     0.000000000000
       3        0.000651944713    -0.000283578367     0.000000000000


*** tstop() called on Ewan at Mon Sep  9 15:57:05 2019
Module time:
	user time   =       0.28 seconds =       0.00 minutes
	system time =       0.00 seconds =       0.00 minutes
	total time  =          1 seconds =       0.02 minutes
Total time:
	user time   =       3.10 seconds =       0.05 minutes
	system time =       0.07 seconds =       0.00 minutes
	total time  =          4 seconds =       0.07 minutes

			-----------------------------------------
			 OPTKING 2.0: for geometry optimizations 
			  - R.A. King,  Bethel University        
			-----------------------------------------

	Previous internal coordinate definitions found.
	---Fragment 1 Geometry and Gradient---
	 O           0.0998611542        0.0798925318        0.0000000000
	 H           0.0998611542       -1.7492952177        0.0000000000
	 H          -1.6847301378        0.4813427614        0.0000000000
	            -0.0005065521       -0.0004053393        0.0000000000
	            -0.0001335830        0.0006983657        0.0000000000
	             0.0006519447       -0.0002835784        0.0000000000

	---Fragment 1 Intrafragment Coordinates---
	 - Coordinate -           - BOHR/RAD -       - ANG/DEG -
	 R(1,2)           =         1.829188	       0.967964
	 R(1,3)           =         1.829188	       0.967965
	 B(2,1,3)         =         1.792067	     102.677853

	Current energy   :       -76.4206260714

	Energy change for the previous step:
		Projected    :        -0.0000845701
		Actual       :        -0.0000393486

	Performing BFGS update.
	Previous computed or guess Hessian on step 1.
	Steps to be used in Hessian update: 1
	Taking RFO optimization step.
	Going to follow RFO solution 1.
	Using RFO vector 1.
	Norm of target step-size    0.00199
	Projected energy change by RFO approximation:        -0.0000023110

	Back-transformation to cartesian coordinates...
	Successfully converged to displaced geometry.

	--- Internal Coordinate Step in ANG or DEG, aJ/ANG or AJ/DEG ---
	 ---------------------------------------------------------------------------
	   Coordinate                Previous        Force       Change         New 
	   ----------                --------       ------       ------       ------
	    1 R(1,2)          =      0.967964     0.005728     0.000612     0.968576
	    2 R(1,3)          =      0.967965     0.005727     0.000612     0.968576
	    3 B(2,1,3)        =    102.677853     0.000019     0.064843   102.742696
	 ---------------------------------------------------------------------------
	Successfully symmetrized geometry.

  ==> Convergence Check <==

  Measures of convergence in internal coordinates in au.
  Criteria marked as inactive (o), active & met (*), and active & unmet ( ).
  ---------------------------------------------------------------------------------------------
   Step     Total Energy     Delta E     MAX Force     RMS Force      MAX Disp      RMS Disp   
  ---------------------------------------------------------------------------------------------
    Convergence Criteria    1.00e-06 *    3.00e-04 *             o    1.20e-03 *             o
  ---------------------------------------------------------------------------------------------
      2     -76.42062607   -3.93e-05      6.95e-04      5.86e-04 o    1.16e-03 *    1.15e-03 o  ~
  ---------------------------------------------------------------------------------------------

	Writing optimization data to binary file.
	Structure for next step:
	Cartesian Geometry (in Angstrom)
	    O     0.0528203781   0.0422582672   0.0000000000
	    H     0.0533684878  -0.9263180228   0.0000000000
	    H    -0.8920211639   0.2553655211   0.0000000000
			--------------------------
			 OPTKING Finished Execution 
			--------------------------

    Structure for next step:
    Molecular point group: cs
    Full point group: Cs

    Geometry (in Angstrom), charge = 0, multiplicity = 1:

    O       
    H             1          R1
    H             1          R2      2          A2

    A2        =  102.7426960810
    R1        =    0.9685764489
    R2        =    0.9685764031

gradient() will perform analytic gradient computation.

*** tstart() called on Ewan
*** at Mon Sep  9 15:57:05 2019

   => Loading Basis Set <=

    Name: CC-PVDZ
    Role: ORBITAL
    Keyword: BASIS
    atoms 1   entry O          line   198 file /home/snelliott/miniconda/envs/pacc-env-mini/share/psi4/basis/cc-pvdz.gbs 
    atoms 2-3 entry H          line    22 file /home/snelliott/miniconda/envs/pacc-env-mini/share/psi4/basis/cc-pvdz.gbs 


         ---------------------------------------------------------
                                   SCF
               by Justin Turney, Rob Parrish, Andy Simmonett
                          and Daniel G. A. Smith
                              RKS Reference
                        1 Threads,    953 MiB Core
         ---------------------------------------------------------

  ==> Geometry <==

    Molecular point group: cs
    Full point group: Cs

    Geometry (in Angstrom), charge = 0, multiplicity = 1:

       Center              X                  Y                   Z               Mass       
    ------------   -----------------  -----------------  -----------------  -----------------
         O            0.052864154244     0.042244202250     0.000000000000    15.994914619570
         H            0.052864154244    -0.926332246651     0.000000000000     1.007825032230
         H           -0.891856644537     0.255886101187     0.000000000000     1.007825032230

  Running in cs symmetry.

  Rotational constants: A =     25.75809  B =     14.60763  C =      9.32139 [cm^-1]
  Rotational constants: A = 772207.97307  B = 437925.74243  C = 279448.25071 [MHz]
  Nuclear repulsion =    9.091204976623237

  Charge       = 0
  Multiplicity = 1
  Electrons    = 10
  Nalpha       = 5
  Nbeta        = 5

  ==> Algorithm <==

  SCF Algorithm Type is PK.
  DIIS enabled.
  MOM disabled.
  Fractional occupation disabled.
  Guess Type is READ.
  Energy threshold   = 1.00e-08
  Density threshold  = 1.00e-08
  Integral threshold = 0.00e+00

  ==> Primary Basis <==

  Basis Set: CC-PVDZ
    Blend: CC-PVDZ
    Number of shells: 12
    Number of basis function: 24
    Number of Cartesian functions: 25
    Spherical Harmonics?: true
    Max angular momentum: 2

  ==> DFT Potential <==

   => Composite Functional: B3LYP <= 

    B3LYP Hyb-GGA Exchange-Correlation Functional

    P. J. Stephens, F. J. Devlin, C. F. Chabalowski, and M. J. Frisch, J. Phys. Chem. 98, 11623 (1994)

    Deriv               =              1
    GGA                 =           TRUE
    Meta                =          FALSE

    Exchange Hybrid     =           TRUE
    MP2 Hybrid          =          FALSE

   => Exchange Functionals <=

    0.0800   Slater exchange
    0.7200         Becke 88

   => Exact (HF) Exchange <=

    0.2000               HF 

   => Correlation Functionals <=

    0.1900   Vosko, Wilk & Nusair (VWN5_RPA)
    0.8100   Lee, Yang & Parr

   => Molecular Quadrature <=

    Radial Scheme          =       TREUTLER
    Pruning Scheme         =           FLAT
    Nuclear Scheme         =       TREUTLER

    BS radius alpha        =              1
    Pruning alpha          =              1
    Radial Points          =             75
    Spherical Points       =            302
    Total Points           =          66405
    Total Blocks           =            561
    Max Points             =            256
    Max Functions          =             24

   => Loading Basis Set <=

    Name: CC-PVDZ
    Role: ORBITAL
    Keyword: BASIS
    atoms 1   entry O          line   198 file /home/snelliott/miniconda/envs/pacc-env-mini/share/psi4/basis/cc-pvdz.gbs 
    atoms 2-3 entry H          line    22 file /home/snelliott/miniconda/envs/pacc-env-mini/share/psi4/basis/cc-pvdz.gbs 

  Reading orbitals from file 180, no projection.

  ==> Pre-Iterations <==

   -------------------------------------------------------
    Irrep   Nso     Nmo     Nalpha   Nbeta   Ndocc  Nsocc
   -------------------------------------------------------
     A'        18      18       0       0       0       0
     A"         6       6       0       0       0       0
   -------------------------------------------------------
    Total      24      24       5       5       5       0
   -------------------------------------------------------

  ==> Integral Setup <==

  Using in-core PK algorithm.
   Calculation information:
      Number of atoms:                   3
      Number of AO shells:              12
      Number of primitives:             32
      Number of atomic orbitals:        25
      Number of basis functions:        24

      Integral cutoff                 1.00e-12
      Number of threads:                 1

  Performing in-core PK
  Using 90300 doubles for integral storage.
  We computed 3081 shell quartets total.
  Whereas there are 3081 unique shell quartets.

  ==> DiskJK: Disk-Based J/K Matrices <==

    J tasked:                  Yes
    K tasked:                  Yes
    wK tasked:                  No
    Memory [MiB]:              669
    Schwarz Cutoff:          1E-12

    OpenMP threads:              1

  Cached 100.0% of DFT collocation blocks in 0.044 [GiB].

  Minimum eigenvalue in the overlap matrix is 3.4739199411E-02.
  Using Symmetric Orthogonalization.

  SCF Guess: Orbitals guess was supplied from a previous computation.

  ==> Iterations <==

                        Total Energy        Delta E     RMS |[F,P]|

   @RKS iter   0:   -76.41998911596694   -7.64200e+01   1.06648e-04 
   @RKS iter   1:   -76.42062697360655   -6.37858e-04   2.86468e-05 DIIS
   @RKS iter   2:   -76.42062692660879    4.69978e-08   3.54411e-05 DIIS
   @RKS iter   3:   -76.42062708334583   -1.56737e-07   3.33299e-06 DIIS
   @RKS iter   4:   -76.42062708474502   -1.39919e-09   3.10608e-07 DIIS
   @RKS iter   5:   -76.42062708475730   -1.22782e-11   3.10348e-08 DIIS
   @RKS iter   6:   -76.42062708475753   -2.27374e-13   4.44142e-09 DIIS
  Energy and wave function converged.


  ==> Post-Iterations <==

    Orbital Energies [Eh]
    ---------------------

    Doubly Occupied:                                                      

       1Ap   -19.124700     2Ap    -0.991939     3Ap    -0.506874  
       4Ap    -0.367419     1App   -0.287749  

    Virtual:                                                              

       5Ap     0.049246     6Ap     0.125199     7Ap     0.549736  
       8Ap     0.611630     9Ap     0.903849     2App    0.918132  
      10Ap     0.996149    11Ap     1.190720     3App    1.236355  
       4App    1.416584    12Ap     1.590923    13Ap     1.669810  
      14Ap     2.090196    15Ap     2.131762     5App    2.920689  
       6App    2.950139    16Ap     3.124373    17Ap     3.445787  
      18Ap     3.735296  

    Final Occupation by Irrep:
             Ap   App 
    DOCC [     4,    1 ]

  @RKS Final Energy:   -76.42062708475753

   => Energetics <=

    Nuclear Repulsion Energy =              9.0912049766232368
    One-Electron Energy =                -123.0327338733727771
    Two-Electron Energy =                  45.0905170392937364
    DFT Exchange-Correlation Energy =      -7.5696152273017256
    Empirical Dispersion Energy =           0.0000000000000000
    VV10 Nonlocal Energy =                  0.0000000000000000
    Total Energy =                        -76.4206270847575269

Computation Completed


Properties will be evaluated at   0.000000,   0.000000,   0.000000 [a0]

Properties computed using the SCF density matrix

  Nuclear Dipole Moment: [e a0]
     X:    -0.7863      Y:    -0.6283      Z:     0.0000

  Electronic Dipole Moment: [e a0]
     X:     0.1907      Y:     0.1524      Z:     0.0000

  Dipole Moment: [e a0]
     X:    -0.5956      Y:    -0.4759      Z:     0.0000     Total:     0.7624

  Dipole Moment: [D]
     X:    -1.5138      Y:    -1.2097      Z:     0.0000     Total:     1.9378


*** tstop() called on Ewan at Mon Sep  9 15:57:06 2019
Module time:
	user time   =       1.04 seconds =       0.02 minutes
	system time =       0.02 seconds =       0.00 minutes
	total time  =          1 seconds =       0.02 minutes
Total time:
	user time   =       4.15 seconds =       0.07 minutes
	system time =       0.09 seconds =       0.00 minutes
	total time  =          5 seconds =       0.08 minutes

*** tstart() called on Ewan
*** at Mon Sep  9 15:57:06 2019


         ------------------------------------------------------------
                                   SCF GRAD                          
                          Rob Parrish, Justin Turney,                
                       Andy Simmonett, and Alex Sokolov              
         ------------------------------------------------------------

  ==> Geometry <==

    Molecular point group: cs
    Full point group: Cs

    Geometry (in Angstrom), charge = 0, multiplicity = 1:

       Center              X                  Y                   Z               Mass       
    ------------   -----------------  -----------------  -----------------  -----------------
         O            0.052864154244     0.042244202250     0.000000000000    15.994914619570
         H            0.052864154244    -0.926332246651     0.000000000000     1.007825032230
         H           -0.891856644537     0.255886101187     0.000000000000     1.007825032230

  Nuclear repulsion =    9.091204976623237

  ==> Basis Set <==

  Basis Set: CC-PVDZ
    Blend: CC-PVDZ
    Number of shells: 12
    Number of basis function: 24
    Number of Cartesian functions: 25
    Spherical Harmonics?: true
    Max angular momentum: 2

  ==> DirectJKGrad: Integral-Direct SCF Gradients <==

    Gradient:                    1
    J tasked:                  Yes
    K tasked:                  Yes
    wK tasked:                  No
    Integrals threads:           1
    Schwarz Cutoff:          0E+00

  ==> DFT Potential <==

   => Composite Functional: B3LYP <= 

    B3LYP Hyb-GGA Exchange-Correlation Functional

    P. J. Stephens, F. J. Devlin, C. F. Chabalowski, and M. J. Frisch, J. Phys. Chem. 98, 11623 (1994)

    Deriv               =              1
    GGA                 =           TRUE
    Meta                =          FALSE

    Exchange Hybrid     =           TRUE
    MP2 Hybrid          =          FALSE

   => Exchange Functionals <=

    0.0800   Slater exchange
    0.7200         Becke 88

   => Exact (HF) Exchange <=

    0.2000               HF 

   => Correlation Functionals <=

    0.1900   Vosko, Wilk & Nusair (VWN5_RPA)
    0.8100   Lee, Yang & Parr

   => Molecular Quadrature <=

    Radial Scheme          =       TREUTLER
    Pruning Scheme         =           FLAT
    Nuclear Scheme         =       TREUTLER

    BS radius alpha        =              1
    Pruning alpha          =              1
    Radial Points          =             75
    Spherical Points       =            302
    Total Points           =          66405
    Total Blocks           =            561
    Max Points             =            256
    Max Functions          =             24


  -Total Gradient:
     Atom            X                  Y                   Z
    ------   -----------------  -----------------  -----------------
       1       -0.000066801090    -0.000053336537     0.000000000000
       2        0.000011814766     0.000065921741     0.000000000000
       3        0.000066947884    -0.000003026584     0.000000000000


*** tstop() called on Ewan at Mon Sep  9 15:57:06 2019
Module time:
	user time   =       0.28 seconds =       0.00 minutes
	system time =       0.00 seconds =       0.00 minutes
	total time  =          0 seconds =       0.00 minutes
Total time:
	user time   =       4.43 seconds =       0.07 minutes
	system time =       0.09 seconds =       0.00 minutes
	total time  =          5 seconds =       0.08 minutes

			-----------------------------------------
			 OPTKING 2.0: for geometry optimizations 
			  - R.A. King,  Bethel University        
			-----------------------------------------

	Previous internal coordinate definitions found.
	---Fragment 1 Geometry and Gradient---
	 O           0.0998987734        0.0798299726        0.0000000000
	 H           0.0998987734       -1.7505142474        0.0000000000
	 H          -1.6853648013        0.4835546506        0.0000000000
	            -0.0000668011       -0.0000533365        0.0000000000
	             0.0000118148        0.0000659217        0.0000000000
	             0.0000669479       -0.0000030266        0.0000000000

	---Fragment 1 Intrafragment Coordinates---
	 - Coordinate -           - BOHR/RAD -       - ANG/DEG -
	 R(1,2)           =         1.830344	       0.968576
	 R(1,3)           =         1.830344	       0.968576
	 B(2,1,3)         =         1.793198	     102.742696

	Current energy   :       -76.4206270848

	Energy change for the previous step:
		Projected    :        -0.0000023110
		Actual       :        -0.0000010133

	Performing BFGS update.
	Previous computed or guess Hessian on step 1.
	Steps to be used in Hessian update: 2 1
	Taking RFO optimization step.
	Going to follow RFO solution 1.
	Using RFO vector 1.
	Norm of target step-size    0.00023
	Projected energy change by RFO approximation:        -0.0000000178

	Back-transformation to cartesian coordinates...
	Successfully converged to displaced geometry.

	--- Internal Coordinate Step in ANG or DEG, aJ/ANG or AJ/DEG ---
	 ---------------------------------------------------------------------------
	   Coordinate                Previous        Force       Change         New 
	   ----------                --------       ------       ------       ------
	    1 R(1,2)          =      0.968576     0.000517     0.000068     0.968645
	    2 R(1,3)          =      0.968576     0.000517     0.000068     0.968645
	    3 B(2,1,3)        =    102.742696    -0.000001    -0.007839   102.734857
	 ---------------------------------------------------------------------------
	Successfully symmetrized geometry.

  ==> Convergence Check <==

  Measures of convergence in internal coordinates in au.
  Criteria marked as inactive (o), active & met (*), and active & unmet ( ).
  ---------------------------------------------------------------------------------------------
   Step     Total Energy     Delta E     MAX Force     RMS Force      MAX Disp      RMS Disp   
  ---------------------------------------------------------------------------------------------
    Convergence Criteria    1.00e-06 *    3.00e-04 *             o    1.20e-03 *             o
  ---------------------------------------------------------------------------------------------
      3     -76.42062708   -1.01e-06      6.28e-05 *    5.19e-05 o    1.37e-04 *    1.32e-04 o  ~
  ---------------------------------------------------------------------------------------------


  **** Optimization is complete! (in 3 steps) ****

  ==> Optimization Summary <==

  Measures of convergence in internal coordinates in au.
  --------------------------------------------------------------------------------------------------------------- ~
   Step         Total Energy             Delta E       MAX Force       RMS Force        MAX Disp        RMS Disp  ~
  --------------------------------------------------------------------------------------------------------------- ~
      1     -76.420586722814    -76.420586722814      0.00363266      0.00226552      0.02269185      0.01319830  ~
      2     -76.420626071435     -0.000039348621      0.00069522      0.00058589      0.00115647      0.00114820  ~
      3     -76.420627084758     -0.000001013323      0.00006278      0.00005191      0.00013681      0.00013161  ~
  --------------------------------------------------------------------------------------------------------------- ~

	Writing optimization data to binary file.
	Final energy is    -76.4206270847575
	Final (previous) structure:
	Cartesian Geometry (in Angstrom)
	    O     0.0528641540   0.0422442021   0.0000000000
	    H     0.0528641540  -0.9263322430   0.0000000000
	    H    -0.8918566410   0.2558861002   0.0000000000
	Saving final (previous) structure.
			--------------------------
			 OPTKING Finished Execution 
			--------------------------

    Final optimized geometry and variables:
    Molecular point group: cs
    Full point group: Cs

    Geometry (in Angstrom), charge = 0, multiplicity = 1:

    O       
    H             1          R1
    H             1          R2      2          A2

    A2        =  102.7426960810
    R1        =    0.9685764489
    R2        =    0.9685764031

	Removing binary optimization data file.
	Cleaning optimization helper files.

    Psi4 stopped on: Monday, 09 September 2019 03:57PM
    Psi4 wall time for execution: 0:00:04.55

*** Psi4 exiting successfully. Buy a developer a beer!
