 Entering Gaussian System, Link 0=g09
 Input=run.inp
 Output=run.out
 Initial command:
 /soft/gaussian/09-e.01/g09/l1.exe "/blues/gpfs/home/elliott/Packages/PACC/moldriver/rcdriver/rundir/SPC/CH4/VNWKTOKETHGBQD/0/1/UHFFFAOYSA-N/ezvlpJR/RUN/HESS/A00/Gau-24746.inp" -scrdir="/blues/gpfs/home/elliott/Packages/PACC/moldriver/rcdriver/rundir/SPC/CH4/VNWKTOKETHGBQD/0/1/UHFFFAOYSA-N/ezvlpJR/RUN/HESS/A00/"
 Entering Link 1 = /soft/gaussian/09-e.01/g09/l1.exe PID=     24747.
  
 Copyright (c) 1988,1990,1992,1993,1995,1998,2003,2009,2015,
            Gaussian, Inc.  All Rights Reserved.
  
 This is part of the Gaussian(R) 09 program.  It is based on
 the Gaussian(R) 03 system (copyright 2003, Gaussian, Inc.),
 the Gaussian(R) 98 system (copyright 1998, Gaussian, Inc.),
 the Gaussian(R) 94 system (copyright 1995, Gaussian, Inc.),
 the Gaussian 92(TM) system (copyright 1992, Gaussian, Inc.),
 the Gaussian 90(TM) system (copyright 1990, Gaussian, Inc.),
 the Gaussian 88(TM) system (copyright 1988, Gaussian, Inc.),
 the Gaussian 86(TM) system (copyright 1986, Carnegie Mellon
 University), and the Gaussian 82(TM) system (copyright 1983,
 Carnegie Mellon University). Gaussian is a federally registered
 trademark of Gaussian, Inc.
  
 This software contains proprietary and confidential information,
 including trade secrets, belonging to Gaussian, Inc.
  
 This software is provided under written license and may be
 used, copied, transmitted, or stored only in accord with that
 written license.
  
 The following legend is applicable only to US Government
 contracts under FAR:
  
                    RESTRICTED RIGHTS LEGEND
  
 Use, reproduction and disclosure by the US Government is
 subject to restrictions as set forth in subparagraphs (a)
 and (c) of the Commercial Computer Software - Restricted
 Rights clause in FAR 52.227-19.
  
 Gaussian, Inc.
 340 Quinnipiac St., Bldg. 40, Wallingford CT 06492
  
  
 ---------------------------------------------------------------
 Warning -- This program may not be used in any manner that
 competes with the business of Gaussian, Inc. or will provide
 assistance to any competitor of Gaussian, Inc.  The licensee
 of this program is prohibited from giving any competitor of
 Gaussian, Inc. access to this program.  By using this program,
 the user acknowledges that Gaussian, Inc. is engaged in the
 business of creating and licensing software in the field of
 computational chemistry and represents and warrants to the
 licensee that it is not a competitor of Gaussian, Inc. and that
 it will not use this program in any manner prohibited above.
 ---------------------------------------------------------------
  

 Cite this work as:
 Gaussian 09, Revision E.01,
 M. J. Frisch, G. W. Trucks, H. B. Schlegel, G. E. Scuseria, 
 M. A. Robb, J. R. Cheeseman, G. Scalmani, V. Barone, B. Mennucci, 
 G. A. Petersson, H. Nakatsuji, M. Caricato, X. Li, H. P. Hratchian, 
 A. F. Izmaylov, J. Bloino, G. Zheng, J. L. Sonnenberg, M. Hada, 
 M. Ehara, K. Toyota, R. Fukuda, J. Hasegawa, M. Ishida, T. Nakajima, 
 Y. Honda, O. Kitao, H. Nakai, T. Vreven, J. A. Montgomery, Jr., 
 J. E. Peralta, F. Ogliaro, M. Bearpark, J. J. Heyd, E. Brothers, 
 K. N. Kudin, V. N. Staroverov, T. Keith, R. Kobayashi, J. Normand, 
 K. Raghavachari, A. Rendell, J. C. Burant, S. S. Iyengar, J. Tomasi, 
 M. Cossi, N. Rega, J. M. Millam, M. Klene, J. E. Knox, J. B. Cross, 
 V. Bakken, C. Adamo, J. Jaramillo, R. Gomperts, R. E. Stratmann, 
 O. Yazyev, A. J. Austin, R. Cammi, C. Pomelli, J. W. Ochterski, 
 R. L. Martin, K. Morokuma, V. G. Zakrzewski, G. A. Voth, 
 P. Salvador, J. J. Dannenberg, S. Dapprich, A. D. Daniels, 
 O. Farkas, J. B. Foresman, J. V. Ortiz, J. Cioslowski, 
 and D. J. Fox, Gaussian, Inc., Wallingford CT, 2013.
 
 ******************************************
 Gaussian 09:  ES64L-G09RevE.01 30-Nov-2015
                23-Aug-2019 
 ******************************************
 %mem=20GB
 %NProcShared=10
 Will use up to   10 processors via shared memory.
 -------------------------------------------------------------------
 #P b3lyp/6-31g* # SCF=(xqc) # Freq=() # IOp(7/33=1) # int=ultrafine
 -------------------------------------------------------------------
 1/10=4,30=1,38=1/1,3;
 2/12=2,17=6,18=5,40=1/2;
 3/5=1,6=6,7=1,11=2,16=1,25=1,30=1,71=2,74=-5,75=-5,140=1/1,2,3;
 4//1;
 5/5=2,8=3,13=1,38=5,98=1/2,8;
 8/6=4,10=90,11=11/1;
 11/6=1,8=1,9=11,15=111,16=1/1,2,10;
 10/6=1/2;
 6/7=2,8=2,9=2,10=2,18=1,28=1/1;
 7/8=1,10=1,25=1,33=1/1,2,3,16;
 1/10=4,30=1/3;
 99//99;
 Leave Link    1 at Fri Aug 23 16:04:20 2019, MaxMem=  2684354560 cpu:         0.6
 (Enter /soft/gaussian/09-e.01/g09/l101.exe)
 --------
 comment:
 --------
 Symbolic Z-matrix:
 Charge =  0 Multiplicity = 1
 C                     0.        0.        0. 
 H                     0.63122   0.63122   0.63122 
 H                    -0.63122  -0.63122   0.63122 
 H                    -0.63122   0.63122  -0.63122 
 H                     0.63122  -0.63122  -0.63122 
 
 NAtoms=      5 NQM=        5 NQMF=       0 NMMI=      0 NMMIF=      0
                NMic=       0 NMicF=      0.
                    Isotopes and Nuclear Properties:
 (Nuclear quadrupole moments (NQMom) in fm**2, nuclear magnetic moments (NMagM)
  in nuclear magnetons)

  Atom         1           2           3           4           5
 IAtWgt=          12           1           1           1           1
 AtmWgt=  12.0000000   1.0078250   1.0078250   1.0078250   1.0078250
 NucSpn=           0           1           1           1           1
 AtZEff=   0.0000000   0.0000000   0.0000000   0.0000000   0.0000000
 NQMom=    0.0000000   0.0000000   0.0000000   0.0000000   0.0000000
 NMagM=    0.0000000   2.7928460   2.7928460   2.7928460   2.7928460
 AtZNuc=   6.0000000   1.0000000   1.0000000   1.0000000   1.0000000
 Leave Link  101 at Fri Aug 23 16:04:20 2019, MaxMem=  2684354560 cpu:         0.6
 (Enter /soft/gaussian/09-e.01/g09/l103.exe)

 GradGradGradGradGradGradGradGradGradGradGradGradGradGradGradGradGradGrad
 Berny optimization.
 Initialization pass.
 Trust Radius=3.00D-01 FncErr=1.00D-07 GrdErr=1.00D-07
 Number of steps in this run=      2 maximum allowed number of steps=      2.
 GradGradGradGradGradGradGradGradGradGradGradGradGradGradGradGradGradGrad

 Leave Link  103 at Fri Aug 23 16:04:20 2019, MaxMem=  2684354560 cpu:         0.2
 (Enter /soft/gaussian/09-e.01/g09/l202.exe)
                          Input orientation:                          
 ---------------------------------------------------------------------
 Center     Atomic      Atomic             Coordinates (Angstroms)
 Number     Number       Type             X           Y           Z
 ---------------------------------------------------------------------
      1          6           0        0.000000    0.000000    0.000000
      2          1           0        0.631216    0.631216    0.631216
      3          1           0       -0.631216   -0.631216    0.631216
      4          1           0       -0.631216    0.631216   -0.631216
      5          1           0        0.631216   -0.631216   -0.631216
 ---------------------------------------------------------------------
                    Distance matrix (angstroms):
                    1          2          3          4          5
     1  C    0.000000
     2  H    1.093298   0.000000
     3  H    1.093298   1.785348   0.000000
     4  H    1.093298   1.785348   1.785348   0.000000
     5  H    1.093298   1.785348   1.785348   1.785348   0.000000
 Stoichiometry    CH4
 Framework group  TD[O(C),4C3(H)]
 Deg. of freedom     1
 Full point group                 TD      NOp  24
 Largest Abelian subgroup         D2      NOp   4
 Largest concise Abelian subgroup D2      NOp   4
                         Standard orientation:                         
 ---------------------------------------------------------------------
 Center     Atomic      Atomic             Coordinates (Angstroms)
 Number     Number       Type             X           Y           Z
 ---------------------------------------------------------------------
      1          6           0        0.000000    0.000000    0.000000
      2          1           0        0.631216    0.631216    0.631216
      3          1           0       -0.631216   -0.631216    0.631216
      4          1           0       -0.631216    0.631216   -0.631216
      5          1           0        0.631216   -0.631216   -0.631216
 ---------------------------------------------------------------------
 Rotational constants (GHZ):    157.3207718    157.3207718    157.3207718
 Leave Link  202 at Fri Aug 23 16:04:20 2019, MaxMem=  2684354560 cpu:         0.2
 (Enter /soft/gaussian/09-e.01/g09/l301.exe)
 Standard basis: 6-31G(d) (6D, 7F)
 Ernie: Thresh=  0.10000D-02 Tol=  0.10000D-05 Strict=F.
 There are     8 symmetry adapted cartesian basis functions of A   symmetry.
 There are     5 symmetry adapted cartesian basis functions of B1  symmetry.
 There are     5 symmetry adapted cartesian basis functions of B2  symmetry.
 There are     5 symmetry adapted cartesian basis functions of B3  symmetry.
 There are     8 symmetry adapted basis functions of A   symmetry.
 There are     5 symmetry adapted basis functions of B1  symmetry.
 There are     5 symmetry adapted basis functions of B2  symmetry.
 There are     5 symmetry adapted basis functions of B3  symmetry.
    23 basis functions,    44 primitive gaussians,    23 cartesian basis functions
     5 alpha electrons        5 beta electrons
       nuclear repulsion energy        13.3948582891 Hartrees.
 IExCor=  402 DFT=T Ex+Corr=B3LYP ExCW=0 ScaHFX=  0.200000
 ScaDFX=  0.800000  0.720000  1.000000  0.810000 ScalE2=  1.000000  1.000000
 IRadAn=      5 IRanWt=     -1 IRanGd=            0 ICorTp=0 IEmpDi=  4
 NAtoms=    5 NActive=    5 NUniq=    2 SFac= 4.00D+00 NAtFMM=   60 NAOKFM=F Big=F
 Integral buffers will be    131072 words long.
 Raffenetti 2 integral format.
 Two-electron integral symmetry is turned on.
 Leave Link  301 at Fri Aug 23 16:04:20 2019, MaxMem=  2684354560 cpu:         0.8
 (Enter /soft/gaussian/09-e.01/g09/l302.exe)
 NPDir=0 NMtPBC=     1 NCelOv=     1 NCel=       1 NClECP=     1 NCelD=      1
         NCelK=      1 NCelE2=     1 NClLst=     1 CellRange=     0.0.
 One-electron integrals computed using PRISM.
 One-electron integral symmetry used in STVInt
 NBasis=    23 RedAO= T EigKep=  2.35D-02  NBF=     8     5     5     5
 NBsUse=    23 1.00D-06 EigRej= -1.00D+00 NBFU=     8     5     5     5
 Precomputing XC quadrature grid using
 IXCGrd= 4 IRadAn=           5 IRanWt=          -1 IRanGd=           0 AccXCQ= 0.00D+00.
 Generated NRdTot=       0 NPtTot=           0 NUsed=           0 NTot=          32
 NSgBfM=    23    23    23    23    23 MxSgAt=     5 MxSgA2=     5.
 Leave Link  302 at Fri Aug 23 16:04:20 2019, MaxMem=  2684354560 cpu:         1.9
 (Enter /soft/gaussian/09-e.01/g09/l303.exe)
 DipDrv:  MaxL=1.
 Leave Link  303 at Fri Aug 23 16:04:20 2019, MaxMem=  2684354560 cpu:         0.3
 (Enter /soft/gaussian/09-e.01/g09/l401.exe)
 ExpMin= 1.61D-01 ExpMax= 3.05D+03 ExpMxC= 4.57D+02 IAcc=3 IRadAn=         5 AccDes= 0.00D+00
 Harris functional with IExCor=  402 and IRadAn=       5 diagonalized for initial guess.
 HarFok:  IExCor=  402 AccDes= 0.00D+00 IRadAn=         5 IDoV= 1 UseB2=F ITyADJ=14
 ICtDFT=  3500011 ScaDFX=  1.000000  1.000000  1.000000  1.000000
 FoFCou: FMM=F IPFlag=           0 FMFlag=      100000 FMFlg1=           0
         NFxFlg=           0 DoJE=T BraDBF=F KetDBF=T FulRan=T
         wScrn=  0.000000 ICntrl=     500 IOpCl=  0 I1Cent=   200000004 NGrid=           0
         NMat0=    1 NMatS0=      1 NMatT0=    0 NMatD0=    1 NMtDS0=    0 NMtDT0=    0
 Petite list used in FoFCou.
 Harris En= -40.5605574597001    
 JPrj=0 DoOrth=F DoCkMO=F.
 Initial guess orbital symmetries:
       Occupied  (A1) (A1) (T2) (T2) (T2)
       Virtual   (A1) (T2) (T2) (T2) (T2) (T2) (T2) (T2) (T2) (T2)
                 (A1) (A1) (E) (E) (T2) (T2) (T2) (A1)
 The electronic state of the initial guess is 1-A1.
 Leave Link  401 at Fri Aug 23 16:04:21 2019, MaxMem=  2684354560 cpu:         2.0
 (Enter /soft/gaussian/09-e.01/g09/l502.exe)
 Closed shell SCF:
 Using DIIS extrapolation, IDIIS=  1040.
 Integral symmetry usage will be decided dynamically.
 Keep R1 ints in memory in symmetry-blocked form, NReq=909716.
 IVT=        8299 IEndB=        8299 NGot=  2684354560 MDV=  2684335341
 LenX=  2684335341 LenY=  2684334371
 Requested convergence on RMS density matrix=1.00D-08 within  64 cycles.
 Requested convergence on MAX density matrix=1.00D-06.
 Requested convergence on             energy=1.00D-06.
 No special actions if energy rises.
 FoFCou: FMM=F IPFlag=           0 FMFlag=           0 FMFlg1=           0
         NFxFlg=           0 DoJE=F BraDBF=F KetDBF=F FulRan=T
         wScrn=  0.000000 ICntrl=     600 IOpCl=  0 I1Cent=           0 NGrid=           0
         NMat0=    1 NMatS0=    276 NMatT0=    0 NMatD0=    1 NMtDS0=    0 NMtDT0=    0
 Petite list used in FoFCou.
 Integral accuracy reduced to 1.0D-05 until final iterations.

 Cycle   1  Pass 0  IDiag  1:
 E= -40.4294582801965    
 DIIS: error= 7.03D-02 at cycle   1 NSaved=   1.
 NSaved= 1 IEnMin= 1 EnMin= -40.4294582801965     IErMin= 1 ErrMin= 7.03D-02
 ErrMax= 7.03D-02  0.00D+00 EMaxC= 1.00D-01 BMatC= 8.20D-02 BMatP= 8.20D-02
 IDIUse=3 WtCom= 2.97D-01 WtEn= 7.03D-01
 Coeff-Com:  0.100D+01
 Coeff-En:   0.100D+01
 Coeff:      0.100D+01
 Gap=     0.430 Goal=   None    Shift=    0.000
 GapD=    0.430 DampG=2.000 DampE=0.500 DampFc=1.0000 IDamp=-1.
 RMSDP=2.23D-02 MaxDP=1.54D-01              OVMax= 1.89D-01

 Cycle   2  Pass 0  IDiag  1:
 E= -40.4082658573523     Delta-E=        0.021192422844 Rises=F Damp=F
 DIIS: error= 7.36D-02 at cycle   2 NSaved=   2.
 NSaved= 2 IEnMin= 1 EnMin= -40.4294582801965     IErMin= 1 ErrMin= 7.03D-02
 ErrMax= 7.36D-02  0.00D+00 EMaxC= 1.00D-01 BMatC= 1.01D-01 BMatP= 8.20D-02
 IDIUse=2 WtCom= 0.00D+00 WtEn= 1.00D+00
 Coeff-En:   0.551D+00 0.449D+00
 Coeff:      0.551D+00 0.449D+00
 Gap=     0.497 Goal=   None    Shift=    0.000
 RMSDP=1.13D-02 MaxDP=7.01D-02 DE= 2.12D-02 OVMax= 9.40D-02

 Cycle   3  Pass 0  IDiag  1:
 E= -40.5181254271294     Delta-E=       -0.109859569777 Rises=F Damp=F
 DIIS: error= 3.77D-03 at cycle   3 NSaved=   3.
 NSaved= 3 IEnMin= 3 EnMin= -40.5181254271294     IErMin= 3 ErrMin= 3.77D-03
 ErrMax= 3.77D-03  0.00D+00 EMaxC= 1.00D-01 BMatC= 2.68D-04 BMatP= 8.20D-02
 IDIUse=3 WtCom= 9.62D-01 WtEn= 3.77D-02
 Coeff-Com:  0.141D-01-0.402D-01 0.103D+01
 Coeff-En:   0.000D+00 0.000D+00 0.100D+01
 Coeff:      0.136D-01-0.387D-01 0.103D+01
 Gap=     0.507 Goal=   None    Shift=    0.000
 RMSDP=5.11D-04 MaxDP=4.03D-03 DE=-1.10D-01 OVMax= 4.53D-03

 Cycle   4  Pass 0  IDiag  1:
 E= -40.5183891387942     Delta-E=       -0.000263711665 Rises=F Damp=F
 DIIS: error= 3.50D-05 at cycle   4 NSaved=   4.
 NSaved= 4 IEnMin= 4 EnMin= -40.5183891387942     IErMin= 4 ErrMin= 3.50D-05
 ErrMax= 3.50D-05  0.00D+00 EMaxC= 1.00D-01 BMatC= 2.30D-08 BMatP= 2.68D-04
 IDIUse=1 WtCom= 1.00D+00 WtEn= 0.00D+00
 Coeff-Com:  0.141D-02-0.963D-03 0.393D-01 0.960D+00
 Coeff:      0.141D-02-0.963D-03 0.393D-01 0.960D+00
 Gap=     0.507 Goal=   None    Shift=    0.000
 RMSDP=5.54D-06 MaxDP=2.74D-05 DE=-2.64D-04 OVMax= 4.88D-05

 Initial convergence to 1.0D-05 achieved.  Increase integral accuracy.
 Cycle   5  Pass 1  IDiag  1:
 E= -40.5183833350681     Delta-E=        0.000005803726 Rises=F Damp=F
 DIIS: error= 6.66D-06 at cycle   1 NSaved=   1.
 NSaved= 1 IEnMin= 1 EnMin= -40.5183833350681     IErMin= 1 ErrMin= 6.66D-06
 ErrMax= 6.66D-06  0.00D+00 EMaxC= 1.00D-01 BMatC= 9.68D-10 BMatP= 9.68D-10
 IDIUse=1 WtCom= 1.00D+00 WtEn= 0.00D+00
 Coeff-Com:  0.100D+01
 Coeff:      0.100D+01
 Gap=     0.507 Goal=   None    Shift=    0.000
 RMSDP=5.54D-06 MaxDP=2.74D-05 DE= 5.80D-06 OVMax= 1.47D-05

 Cycle   6  Pass 1  IDiag  1:
 E= -40.5183833351451     Delta-E=       -0.000000000077 Rises=F Damp=F
 DIIS: error= 6.70D-06 at cycle   2 NSaved=   2.
 NSaved= 2 IEnMin= 2 EnMin= -40.5183833351451     IErMin= 1 ErrMin= 6.66D-06
 ErrMax= 6.70D-06  0.00D+00 EMaxC= 1.00D-01 BMatC= 8.18D-10 BMatP= 9.68D-10
 IDIUse=1 WtCom= 1.00D+00 WtEn= 0.00D+00
 Coeff-Com:  0.478D+00 0.522D+00
 Coeff:      0.478D+00 0.522D+00
 Gap=     0.507 Goal=   None    Shift=    0.000
 RMSDP=1.11D-06 MaxDP=8.20D-06 DE=-7.70D-11 OVMax= 9.70D-06

 Cycle   7  Pass 1  IDiag  1:
 E= -40.5183833359660     Delta-E=       -0.000000000821 Rises=F Damp=F
 DIIS: error= 8.82D-07 at cycle   3 NSaved=   3.
 NSaved= 3 IEnMin= 3 EnMin= -40.5183833359660     IErMin= 3 ErrMin= 8.82D-07
 ErrMax= 8.82D-07  0.00D+00 EMaxC= 1.00D-01 BMatC= 1.50D-11 BMatP= 8.18D-10
 IDIUse=1 WtCom= 1.00D+00 WtEn= 0.00D+00
 Coeff-Com: -0.434D-01 0.845D-01 0.959D+00
 Coeff:     -0.434D-01 0.845D-01 0.959D+00
 Gap=     0.507 Goal=   None    Shift=    0.000
 RMSDP=1.15D-07 MaxDP=9.69D-07 DE=-8.21D-10 OVMax= 1.03D-06

 Cycle   8  Pass 1  IDiag  1:
 E= -40.5183833359805     Delta-E=       -0.000000000014 Rises=F Damp=F
 DIIS: error= 1.78D-08 at cycle   4 NSaved=   4.
 NSaved= 4 IEnMin= 4 EnMin= -40.5183833359805     IErMin= 4 ErrMin= 1.78D-08
 ErrMax= 1.78D-08  0.00D+00 EMaxC= 1.00D-01 BMatC= 5.10D-15 BMatP= 1.50D-11
 IDIUse=1 WtCom= 1.00D+00 WtEn= 0.00D+00
 Coeff-Com: -0.170D-02 0.104D-04 0.305D-01 0.971D+00
 Coeff:     -0.170D-02 0.104D-04 0.305D-01 0.971D+00
 Gap=     0.507 Goal=   None    Shift=    0.000
 RMSDP=3.03D-09 MaxDP=1.98D-08 DE=-1.45D-11 OVMax= 2.57D-08

 SCF Done:  E(RB3LYP) =  -40.5183833360     A.U. after    8 cycles
            NFock=  8  Conv=0.30D-08     -V/T= 2.0112
 KE= 4.007091414346D+01 PE=-1.198291433011D+02 EE= 2.584498753255D+01
 Leave Link  502 at Fri Aug 23 16:04:21 2019, MaxMem=  2684354560 cpu:         2.3
 (Enter /soft/gaussian/09-e.01/g09/l508.exe)
 QCSCF skips out because SCF is already converged.
 Leave Link  508 at Fri Aug 23 16:04:21 2019, MaxMem=  2684354560 cpu:         0.0
 (Enter /soft/gaussian/09-e.01/g09/l801.exe)
 DoSCS=F DFT=T ScalE2(SS,OS)=  1.000000  1.000000
 Range of M.O.s used for correlation:     1    23
 NBasis=    23 NAE=     5 NBE=     5 NFC=     0 NFV=     0
 NROrb=     23 NOA=     5 NOB=     5 NVA=    18 NVB=    18
 Leave Link  801 at Fri Aug 23 16:04:21 2019, MaxMem=  2684354560 cpu:         0.3
 (Enter /soft/gaussian/09-e.01/g09/l1101.exe)
 Using compressed storage, NAtomX=     5.
 Will process      6 centers per pass.
 Leave Link 1101 at Fri Aug 23 16:04:22 2019, MaxMem=  2684354560 cpu:         1.9
 (Enter /soft/gaussian/09-e.01/g09/l1102.exe)
 Symmetrizing basis deriv contribution to polar:
 IMax=3 JMax=2 DiffMx= 0.00D+00
 Leave Link 1102 at Fri Aug 23 16:04:22 2019, MaxMem=  2684354560 cpu:         0.6
 (Enter /soft/gaussian/09-e.01/g09/l1110.exe)
 Forming Gx(P) for the SCF density, NAtomX=     5.
 Integral derivatives from FoFJK, PRISM(SPDF).
 Do as many integral derivatives as possible in FoFJK.
 G2DrvN: MDV=    2684354416.
 G2DrvN: will do     6 centers at a time, making    1 passes.
 Calling FoFCou, ICntrl=  3107 FMM=F I1Cent=   0 AccDes= 0.00D+00.
 FoFJK:  IHMeth= 1 ICntrl=    3107 DoSepK=F KAlg= 0 I1Cent=   0 FoldK=F
 IRaf=         0 NMat=   1 IRICut=       1 DoRegI=T DoRafI=F ISym2E= 1.
 FoFCou: FMM=F IPFlag=           0 FMFlag=      100000 FMFlg1=           0
         NFxFlg=           0 DoJE=F BraDBF=F KetDBF=F FulRan=T
         wScrn=  0.000000 ICntrl=    3107 IOpCl=  0 I1Cent=           0 NGrid=           0
         NMat0=    1 NMatS0=      1 NMatT0=    0 NMatD0=    1 NMtDS0=    0 NMtDT0=    0
 Petite list used in FoFCou.
 End of G2Drv F.D. properties file   721 does not exist.
 End of G2Drv F.D. properties file   722 does not exist.
 End of G2Drv F.D. properties file   788 does not exist.
 Leave Link 1110 at Fri Aug 23 16:04:22 2019, MaxMem=  2684354560 cpu:         2.5
 (Enter /soft/gaussian/09-e.01/g09/l1002.exe)
 Minotr:  Closed shell wavefunction.
          IDoAtm=11111
          Direct CPHF calculation.
          Differentiating once with respect to electric field.
                with respect to dipole field.
          Differentiating once with respect to nuclear coordinates.
          Using symmetry in CPHF.
          Requested convergence is 1.0D-08 RMS, and 1.0D-07 maximum.
          Secondary convergence is 1.0D-12 RMS, and 1.0D-12 maximum.
          NewPWx=T KeepS1=F KeepF1=F KeepIn=T MapXYZ=F SortEE=F KeepMc=T.
          MDV=    2684354483 using IRadAn=       1.
 Generate precomputed XC quadrature information.
 Keep R1 ints in memory in symmetry-blocked form, NReq=900460.
 FoFCou: FMM=F IPFlag=           0 FMFlag=           0 FMFlg1=           0
         NFxFlg=           0 DoJE=F BraDBF=F KetDBF=F FulRan=T
         wScrn=  0.000000 ICntrl=     600 IOpCl=  0 I1Cent=           0 NGrid=           0
         NMat0=    1 NMatS0=    276 NMatT0=    0 NMatD0=    1 NMtDS0=    0 NMtDT0=    0
 Petite list used in FoFCou.
          Solving linear equations simultaneously, MaxMat=       0.
          There are     9 degrees of freedom in the 1st order CPHF.  IDoFFX=4 NUNeed=     9.
      9 vectors produced by pass  0 Test12= 1.00D-15 1.11D-08 XBig12= 6.10D+00 1.43D+00.
 AX will form     9 AO Fock derivatives at one time.
      9 vectors produced by pass  1 Test12= 1.00D-15 1.11D-08 XBig12= 8.43D-02 1.25D-01.
      9 vectors produced by pass  2 Test12= 1.00D-15 1.11D-08 XBig12= 2.14D-04 5.63D-03.
      9 vectors produced by pass  3 Test12= 1.00D-15 1.11D-08 XBig12= 2.93D-07 1.50D-04.
      9 vectors produced by pass  4 Test12= 1.00D-15 1.11D-08 XBig12= 1.07D-10 3.89D-06.
      4 vectors produced by pass  5 Test12= 1.00D-15 1.11D-08 XBig12= 4.01D-14 8.38D-08.
 InvSVY:  IOpt=1 It=  1 EMax= 4.44D-16
 Solved reduced A of dimension    49 with     9 vectors.
 FullF1:  Do perturbations    1 to     9.
 Isotropic polarizability for W=    0.000000       12.35 Bohr**3.
 End of Minotr F.D. properties file   721 does not exist.
 End of Minotr F.D. properties file   722 does not exist.
 End of Minotr F.D. properties file   788 does not exist.
 Leave Link 1002 at Fri Aug 23 16:04:24 2019, MaxMem=  2684354560 cpu:        15.2
 (Enter /soft/gaussian/09-e.01/g09/l601.exe)
 Copying SCF densities to generalized density rwf, IOpCl= 0 IROHF=0.

 **********************************************************************

            Population analysis using the SCF density.

 **********************************************************************

 Orbital symmetries:
       Occupied  (A1) (A1) (T2) (T2) (T2)
       Virtual   (A1) (T2) (T2) (T2) (T2) (T2) (T2) (T2) (T2) (T2)
                 (A1) (A1) (E) (E) (T2) (T2) (T2) (A1)
 The electronic state is 1-A1.
 Alpha  occ. eigenvalues --  -10.16696  -0.69029  -0.38906  -0.38906  -0.38906
 Alpha virt. eigenvalues --    0.11791   0.17653   0.17653   0.17653   0.53326
 Alpha virt. eigenvalues --    0.53326   0.53326   0.89770   0.89770   0.89770
 Alpha virt. eigenvalues --    0.94742   1.09984   1.65652   1.65652   2.24358
 Alpha virt. eigenvalues --    2.24358   2.24358   4.17915
          Condensed to atoms (all electrons):
               1          2          3          4          5
     1  C    5.093087   0.383773   0.383773   0.383773   0.383773
     2  H    0.383773   0.539553  -0.026790  -0.026790  -0.026790
     3  H    0.383773  -0.026790   0.539553  -0.026790  -0.026790
     4  H    0.383773  -0.026790  -0.026790   0.539553  -0.026790
     5  H    0.383773  -0.026790  -0.026790  -0.026790   0.539553
 Mulliken charges:
               1
     1  C   -0.628178
     2  H    0.157044
     3  H    0.157044
     4  H    0.157044
     5  H    0.157044
 Sum of Mulliken charges =  -0.00000
 Mulliken charges with hydrogens summed into heavy atoms:
               1
     1  C   -0.000000
 APT charges:
               1
     1  C    0.000750
     2  H   -0.000188
     3  H   -0.000188
     4  H   -0.000188
     5  H   -0.000188
 Sum of APT charges =  -0.00000
 APT charges with hydrogens summed into heavy atoms:
               1
     1  C   -0.000000
 Electronic spatial extent (au):  <R**2>=             35.4783
 Charge=             -0.0000 electrons
 Dipole moment (field-independent basis, Debye):
    X=             -0.0000    Y=             -0.0000    Z=             -0.0000  Tot=              0.0000
 Quadrupole moment (field-independent basis, Debye-Ang):
   XX=             -8.2515   YY=             -8.2515   ZZ=             -8.2515
   XY=             -0.0000   XZ=              0.0000   YZ=              0.0000
 Traceless Quadrupole moment (field-independent basis, Debye-Ang):
   XX=              0.0000   YY=              0.0000   ZZ=              0.0000
   XY=             -0.0000   XZ=              0.0000   YZ=              0.0000
 Octapole moment (field-independent basis, Debye-Ang**2):
  XXX=              0.0000  YYY=             -0.0000  ZZZ=              0.0000  XYY=              0.0000
  XXY=             -0.0000  XXZ=              0.0000  XZZ=             -0.0000  YZZ=              0.0000
  YYZ=             -0.0000  XYZ=              0.6711
 Hexadecapole moment (field-independent basis, Debye-Ang**3):
 XXXX=            -15.7521 YYYY=            -15.7521 ZZZZ=            -15.7521 XXXY=             -0.0000
 XXXZ=              0.0000 YYYX=             -0.0000 YYYZ=              0.0000 ZZZX=              0.0000
 ZZZY=              0.0000 XXYY=             -4.8061 XXZZ=             -4.8061 YYZZ=             -4.8061
 XXYZ=              0.0000 YYXZ=             -0.0000 ZZXY=             -0.0000
 N-N= 1.339485828910D+01 E-N=-1.198291428898D+02  KE= 4.007091414346D+01
 Symmetry A    KE= 3.429159973957D+01
 Symmetry B1   KE= 1.926438134628D+00
 Symmetry B2   KE= 1.926438134628D+00
 Symmetry B3   KE= 1.926438134628D+00
  Exact polarizability:  12.352   0.000  12.352   0.000   0.000  12.352
 Approx polarizability:  14.599  -0.000  14.599  -0.000  -0.000  14.599
 No NMR shielding tensors so no spin-rotation constants.
 Leave Link  601 at Fri Aug 23 16:04:25 2019, MaxMem=  2684354560 cpu:         1.7
 (Enter /soft/gaussian/09-e.01/g09/l701.exe)
 Compute integral second derivatives.
 ... and contract with generalized density number  0.
 Entering OneElI...
 Calculate overlap and kinetic energy integrals
    NBasis =  23  MinDer = 2  MaxDer = 2
 Requested accuracy = 0.1000D-12
 PrsmSu:  NPrtUS=  10 ThrOK=T IAlg=1 NPAlg=1 LenDen=           0.
 Prism:   IPart=     0 DynPar=F LinDyn=F Incr=           1.
 PRISM was handed   268430545 working-precision words and    78 shell-pairs
 PRISM was handed   268430545 working-precision words and    78 shell-pairs
 PRISM was handed   268430545 working-precision words and    78 shell-pairs
 PRISM was handed   268430545 working-precision words and    78 shell-pairs
 PRISM was handed   268430545 working-precision words and    78 shell-pairs
 PRISM was handed   268430545 working-precision words and    78 shell-pairs
 PRISM was handed   268430545 working-precision words and    78 shell-pairs
 PRISM was handed   268430545 working-precision words and    78 shell-pairs
 PRISM was handed   268430545 working-precision words and    78 shell-pairs
 PRISM was handed   268430545 working-precision words and    78 shell-pairs
 IPart=  8 NShTot=           2 NBatch=           2 AvBLen=         1.0
 IPart=  6 NShTot=           3 NBatch=           3 AvBLen=         1.0
 IPart=  4 NShTot=           5 NBatch=           4 AvBLen=         1.3
 IPart=  2 NShTot=          12 NBatch=          11 AvBLen=         1.1
 IPart=  9 NShTot=           2 NBatch=           2 AvBLen=         1.0
 IPart=  5 NShTot=           5 NBatch=           4 AvBLen=         1.3
 IPart=  1 NShTot=          12 NBatch=          11 AvBLen=         1.1
 IPart=  7 NShTot=           3 NBatch=           3 AvBLen=         1.0
 IPart=  3 NShTot=          12 NBatch=          11 AvBLen=         1.1
 IPart=  0 NShTot=          22 NBatch=          21 AvBLen=         1.0
 PrSmSu:  NxtVal=             11.
 Entering OneElI...
 Calculate potential energy integrals
    NBasis =  23  MinDer = 2  MaxDer = 2
 Requested accuracy = 0.1000D-12
 PrsmSu:  NPrtUS=  10 ThrOK=T IAlg=1 NPAlg=1 LenDen=           0.
 Prism:   IPart=     0 DynPar=F LinDyn=F Incr=           1.
 PRISM was handed   268430678 working-precision words and    78 shell-pairs
 PRISM was handed   268430678 working-precision words and    78 shell-pairs
 PRISM was handed   268430678 working-precision words and    78 shell-pairs
 PRISM was handed   268430678 working-precision words and    78 shell-pairs
 PRISM was handed   268430678 working-precision words and    78 shell-pairs
 PRISM was handed   268430678 working-precision words and    78 shell-pairs
 PRISM was handed   268430678 working-precision words and    78 shell-pairs
 PRISM was handed   268430678 working-precision words and    78 shell-pairs
 PRISM was handed   268430678 working-precision words and    78 shell-pairs
 PRISM was handed   268430678 working-precision words and    78 shell-pairs
 IPart=  3 NShTot=          60 NBatch=          12 AvBLen=         5.0
 IPart=  1 NShTot=          60 NBatch=          12 AvBLen=         5.0
 IPart=  5 NShTot=          25 NBatch=           5 AvBLen=         5.0
 IPart=  7 NShTot=          15 NBatch=           3 AvBLen=         5.0
 IPart=  9 NShTot=          10 NBatch=           2 AvBLen=         5.0
 IPart=  6 NShTot=          15 NBatch=           3 AvBLen=         5.0
 IPart=  8 NShTot=          10 NBatch=           2 AvBLen=         5.0
 IPart=  4 NShTot=          25 NBatch=           5 AvBLen=         5.0
 IPart=  2 NShTot=          60 NBatch=          12 AvBLen=         5.0
 IPart=  0 NShTot=         110 NBatch=          22 AvBLen=         5.0
 PrSmSu:  NxtVal=             11.
 Polarizability after L701:
                1             2             3 
      1  0.123515D+02
      2  0.000000D+00  0.123515D+02
      3  0.000000D+00  0.000000D+00  0.123515D+02
 Dipole Derivatives after L701:
                 1             2             3             4             5 
      1   0.750463D-03  0.000000D+00  0.000000D+00 -0.187616D-03 -0.735102D-01
      2   0.000000D+00  0.750463D-03  0.000000D+00 -0.735102D-01 -0.187616D-03
      3   0.000000D+00  0.000000D+00  0.750463D-03 -0.735102D-01 -0.735102D-01
                 6             7             8             9            10 
      1  -0.735102D-01 -0.187616D-03 -0.735102D-01  0.735102D-01 -0.187616D-03
      2  -0.735102D-01 -0.735102D-01 -0.187616D-03  0.735102D-01  0.735102D-01
      3  -0.187616D-03  0.735102D-01  0.735102D-01 -0.187616D-03 -0.735102D-01
                11            12            13            14            15 
      1   0.735102D-01 -0.735102D-01 -0.187616D-03  0.735102D-01  0.735102D-01
      2  -0.187616D-03  0.735102D-01  0.735102D-01 -0.187616D-03 -0.735102D-01
      3   0.735102D-01 -0.187616D-03  0.735102D-01 -0.735102D-01 -0.187616D-03
 Hessian after L701:
                1             2             3             4             5 
      1  0.479869D+01
      2  0.000000D+00  0.479869D+01
      3  0.000000D+00  0.000000D+00  0.479869D+01
      4 -0.119967D+01  0.494801D+00  0.494801D+00  0.117656D+01
      5  0.494801D+00 -0.119967D+01  0.494801D+00 -0.466308D+00  0.117656D+01
      6  0.494801D+00  0.494801D+00 -0.119967D+01 -0.466308D+00 -0.466308D+00
      7 -0.119967D+01  0.494801D+00 -0.494801D+00 -0.876736D-02 -0.284929D-01
      8  0.494801D+00 -0.119967D+01 -0.494801D+00 -0.284929D-01 -0.876736D-02
      9 -0.494801D+00 -0.494801D+00 -0.119967D+01 -0.125550D-01 -0.125550D-01
     10 -0.119967D+01 -0.494801D+00  0.494801D+00 -0.876736D-02  0.125550D-01
     11 -0.494801D+00 -0.119967D+01 -0.494801D+00 -0.125550D-01  0.406456D-01
     12  0.494801D+00 -0.494801D+00 -0.119967D+01 -0.284929D-01  0.125550D-01
     13 -0.119967D+01 -0.494801D+00 -0.494801D+00  0.406456D-01 -0.125550D-01
     14 -0.494801D+00 -0.119967D+01  0.494801D+00  0.125550D-01 -0.876736D-02
     15 -0.494801D+00  0.494801D+00 -0.119967D+01  0.125550D-01 -0.284929D-01
                6             7             8             9            10 
      6  0.117656D+01
      7  0.125550D-01  0.117656D+01
      8  0.125550D-01 -0.466308D+00  0.117656D+01
      9  0.406456D-01  0.466308D+00  0.466308D+00  0.117656D+01
     10 -0.284929D-01  0.406456D-01 -0.125550D-01  0.125550D-01  0.117656D+01
     11 -0.125550D-01  0.125550D-01 -0.876736D-02  0.284929D-01  0.466308D+00
     12 -0.876736D-02 -0.125550D-01  0.284929D-01 -0.876736D-02 -0.466308D+00
     13 -0.125550D-01 -0.876736D-02  0.125550D-01  0.284929D-01 -0.876736D-02
     14 -0.284929D-01 -0.125550D-01  0.406456D-01  0.125550D-01  0.284929D-01
     15 -0.876736D-02  0.284929D-01 -0.125550D-01 -0.876736D-02 -0.125550D-01
               11            12            13            14            15 
     11  0.117656D+01
     12  0.466308D+00  0.117656D+01
     13  0.284929D-01  0.125550D-01  0.117656D+01
     14 -0.876736D-02 -0.125550D-01  0.466308D+00  0.117656D+01
     15  0.125550D-01  0.406456D-01  0.466308D+00 -0.466308D+00  0.117656D+01
 Leave Link  701 at Fri Aug 23 16:04:25 2019, MaxMem=  2684354560 cpu:         2.0
 (Enter /soft/gaussian/09-e.01/g09/l702.exe)
 L702 exits ... SP integral derivatives will be done elsewhere.
 Leave Link  702 at Fri Aug 23 16:04:25 2019, MaxMem=  2684354560 cpu:         0.2
 (Enter /soft/gaussian/09-e.01/g09/l703.exe)
 Compute integral second derivatives, UseDBF=F ICtDFT=           0.
 Integral derivatives from FoFJK, PRISM(SPDF).
 ICntrl=    100127.
 Calling FoFJK, ICntrl=    100127 FMM=F ISym2X=1 I1Cent= 0 IOpClX= 0 NMat=1 NMatS=1 NMatT=0.
 FoFJK:  IHMeth= 1 ICntrl=  100127 DoSepK=F KAlg= 0 I1Cent=   0 FoldK=F
 IRaf=         0 NMat=   1 IRICut=       1 DoRegI=T DoRafI=F ISym2E= 1.
 FoFCou: FMM=F IPFlag=           0 FMFlag=      100000 FMFlg1=         800
         NFxFlg=           0 DoJE=F BraDBF=F KetDBF=F FulRan=T
         wScrn=  0.000000 ICntrl=  100127 IOpCl=  0 I1Cent=           0 NGrid=           0
         NMat0=    1 NMatS0=      1 NMatT0=    0 NMatD0=    1 NMtDS0=    0 NMtDT0=    0
 Petite list used in FoFCou.
 FoFCou:  KetSym=F NOpSet= 24 NOpAb=4 NOp= 24.
 FoFCou:  CnvScl= 1.00D+00 Thresh= 1.00D-10 IAcrcy=      10.
 PrismS was handed  2684340833 working-precision words and    78 shell-pairs
 FoFCou: LinMIO=F DoNuc=F BraDBF=F KetDBF=F HaveP=T PDBF=F HaveZ=T HaveW=F
         NIJTC =       6 NIJTAt=       0 NIJTCD=       0 NIJTT =       6
         IJTBeg=       1 IJTEnd=       6 KLTBeg=       1 KLTEnd=       6
         IPTBeg=       1 IPTEnd=       6 IPTBCv=       1 IPTECv=       6
         IZTBeg=       1 IZTEnd=       6 IZTBCv=       1 IZTECv=       6
         IWTBeg=       7 IWTEnd=       6 IWTBCv=       7 IWTECv=       6
         INTBeg=       1 INTEnd=       0 IFTBCv=       1 IFTECv=       6
 NCel replicated for PrismC:     1
 CoulSu:  IncDef=  1024 NBBP=           3081 NTPThr=   100 NPartT=   10 Incr=           3 LDynOK=F.
 CoulSu:  NPrtUS=  10 ThrOK=T IAlg=1 NPAlg=1 LenDen=           0 LWGrdD=           0 DoCopy=F.
 Enter PrismC: JobTyp=22 DoJE=F Cont=F.
 PrismC:  IPart=     0 DynPar=F LinDyn=F Incr=           3 UseFst=F UseS4=T IGathr=2.
 PrismC was handed   268430494 working-precision words and    78 shell-pairs
 Enter PrismC: JobTyp=22 DoJE=F Cont=F.
 PrismC was handed   268430494 working-precision words and    78 shell-pairs
 Enter PrismC: JobTyp=22 DoJE=F Cont=F.
 PrismC was handed   268430494 working-precision words and    78 shell-pairs
 Enter PrismC: JobTyp=22 DoJE=F Cont=F.
 PrismC was handed   268430494 working-precision words and    78 shell-pairs
 Enter PrismC: JobTyp=22 DoJE=F Cont=F.
 PrismC was handed   268430494 working-precision words and    78 shell-pairs
 Enter PrismC: JobTyp=22 DoJE=F Cont=F.
 PrismC was handed   268430494 working-precision words and    78 shell-pairs
 Enter PrismC: JobTyp=22 DoJE=F Cont=F.
 Enter PrismC: JobTyp=22 DoJE=F Cont=F.
 PrismC was handed   268430494 working-precision words and    78 shell-pairs
 PrismC was handed   268430494 working-precision words and    78 shell-pairs
 Enter PrismC: JobTyp=22 DoJE=F Cont=F.
 Enter PrismC: JobTyp=22 DoJE=F Cont=F.
 PrismC was handed   268430494 working-precision words and    78 shell-pairs
 PrismC was handed   268430494 working-precision words and    78 shell-pairs
 IPart=  2 NShTot=          45 NShNF=          45 NShFF=           0 NBatch=          45 AvBLen=         1.0
 IPart=  4 NShTot=          36 NShNF=          36 NShFF=           0 NBatch=          32 AvBLen=         1.1
 IPart=  1 NShTot=          18 NShNF=          18 NShFF=           0 NBatch=          16 AvBLen=         1.1
 IPart=  9 NShTot=          32 NShNF=          32 NShFF=           0 NBatch=          30 AvBLen=         1.1
 IPart=  6 NShTot=          10 NShNF=          10 NShFF=           0 NBatch=           9 AvBLen=         1.1
 IPart=  5 NShTot=          53 NShNF=          53 NShFF=           0 NBatch=          49 AvBLen=         1.1
 IPart=  8 NShTot=          25 NShNF=          25 NShFF=           0 NBatch=          22 AvBLen=         1.1
 IPart=  7 NShTot=          22 NShNF=          22 NShFF=           0 NBatch=          22 AvBLen=         1.0
 IPart=  3 NShTot=         103 NShNF=         103 NShFF=           0 NBatch=         103 AvBLen=         1.0
 IPart=  0 NShTot=          83 NShNF=          83 NShFF=           0 NBatch=          82 AvBLen=         1.0
 CoulSu:  NxtVal=             31.
 ReadGW:  IGet=0 IStart=           1 Next=           1 LGW=           0.
 Remaining memory in FofDFT     2560.00 Mw
 CkSvGd:  ISavGI=        -1 IRadAn=       5 IRASav=       5 ISavGd=        -1.
 CalDSu:  NPrtUS=  10 ThrOK=T IAlg=1 NPAlg=2 DoDPD=T LenP=         276 LenD1P=             0.
 IPart=  0 IRanGd=          0 ScrnBf=T ScrnGd=T RCrit=4.00D+00 DoMicB=T.
 IPart=  2         2424 of         2603 points in       4 batches and       20 microbatches, Max-NSigAt=       5 Max-NSgAt2=       5
 IPart=  7         2633 of         2994 points in       6 batches and       15 microbatches, Max-NSigAt=       5 Max-NSgAt2=       5
 IPart=  4         2080 of         2236 points in       4 batches and       18 microbatches, Max-NSigAt=       5 Max-NSgAt2=       5
 IPart=  1         2087 of         2236 points in       4 batches and       19 microbatches, Max-NSigAt=       5 Max-NSgAt2=       5
 IPart=  9         2150 of         2380 points in       4 batches and       30 microbatches, Max-NSigAt=       5 Max-NSgAt2=       5
 IPart=  0         3377 of         3377 points in       2 batches and        8 microbatches, Max-NSigAt=       5 Max-NSgAt2=       5
 IPart=  3         2071 of         2236 points in       4 batches and       26 microbatches, Max-NSigAt=       5 Max-NSgAt2=       5
 IPart=  5         2830 of         2868 points in       3 batches and        8 microbatches, Max-NSigAt=       5 Max-NSgAt2=       5
 IPart=  8         2873 of         3010 points in       3 batches and       11 microbatches, Max-NSigAt=       5 Max-NSgAt2=       5
 IPart=  6         3031 of         3158 points in       4 batches and       11 microbatches, Max-NSigAt=       5 Max-NSgAt2=       5
 Polarizability after L703:
                1             2             3 
      1  0.123515D+02
      2  0.000000D+00  0.123515D+02
      3  0.000000D+00  0.000000D+00  0.123515D+02
 Dipole Derivatives after L703:
                 1             2             3             4             5 
      1   0.750463D-03  0.000000D+00  0.000000D+00 -0.187616D-03 -0.735102D-01
      2   0.000000D+00  0.750463D-03  0.000000D+00 -0.735102D-01 -0.187616D-03
      3   0.000000D+00  0.000000D+00  0.750463D-03 -0.735102D-01 -0.735102D-01
                 6             7             8             9            10 
      1  -0.735102D-01 -0.187616D-03 -0.735102D-01  0.735102D-01 -0.187616D-03
      2  -0.735102D-01 -0.735102D-01 -0.187616D-03  0.735102D-01  0.735102D-01
      3  -0.187616D-03  0.735102D-01  0.735102D-01 -0.187616D-03 -0.735102D-01
                11            12            13            14            15 
      1   0.735102D-01 -0.735102D-01 -0.187616D-03  0.735102D-01  0.735102D-01
      2  -0.187616D-03  0.735102D-01  0.735102D-01 -0.187616D-03 -0.735102D-01
      3   0.735102D-01 -0.187616D-03  0.735102D-01 -0.735102D-01 -0.187616D-03
 Hessian after L703:
                1             2             3             4             5 
      1  0.558834D+00
      2  0.000000D+00  0.558834D+00
      3  0.000000D+00  0.000000D+00  0.558834D+00
      4 -0.139708D+00 -0.914858D-01 -0.914858D-01  0.147397D+00
      5 -0.914858D-01 -0.139708D+00 -0.914858D-01  0.100654D+00  0.147397D+00
      6 -0.914858D-01 -0.914858D-01 -0.139708D+00  0.100654D+00  0.100654D+00
      7 -0.139708D+00 -0.914858D-01  0.914858D-01 -0.108339D-01 -0.916798D-02
      8 -0.914858D-01 -0.139708D+00  0.914858D-01 -0.916798D-02 -0.108339D-01
      9  0.914858D-01  0.914858D-01 -0.139708D+00 -0.117919D-01 -0.117919D-01
     10 -0.139708D+00  0.914858D-01 -0.914858D-01 -0.108339D-01  0.117919D-01
     11  0.914858D-01 -0.139708D+00  0.914858D-01 -0.117919D-01  0.139790D-01
     12 -0.914858D-01  0.914858D-01 -0.139708D+00 -0.916798D-02  0.117919D-01
     13 -0.139708D+00  0.914858D-01  0.914858D-01  0.139790D-01 -0.117919D-01
     14  0.914858D-01 -0.139708D+00 -0.914858D-01  0.117919D-01 -0.108339D-01
     15  0.914858D-01 -0.914858D-01 -0.139708D+00  0.117919D-01 -0.916798D-02
                6             7             8             9            10 
      6  0.147397D+00
      7  0.117919D-01  0.147397D+00
      8  0.117919D-01  0.100654D+00  0.147397D+00
      9  0.139790D-01 -0.100654D+00 -0.100654D+00  0.147397D+00
     10 -0.916798D-02  0.139790D-01 -0.117919D-01  0.117919D-01  0.147397D+00
     11 -0.117919D-01  0.117919D-01 -0.108339D-01  0.916798D-02 -0.100654D+00
     12 -0.108339D-01 -0.117919D-01  0.916798D-02 -0.108339D-01  0.100654D+00
     13 -0.117919D-01 -0.108339D-01  0.117919D-01  0.916798D-02 -0.108339D-01
     14 -0.916798D-02 -0.117919D-01  0.139790D-01  0.117919D-01  0.916798D-02
     15 -0.108339D-01  0.916798D-02 -0.117919D-01 -0.108339D-01 -0.117919D-01
               11            12            13            14            15 
     11  0.147397D+00
     12 -0.100654D+00  0.147397D+00
     13  0.916798D-02  0.117919D-01  0.147397D+00
     14 -0.108339D-01 -0.117919D-01 -0.100654D+00  0.147397D+00
     15  0.117919D-01  0.139790D-01 -0.100654D+00  0.100654D+00  0.147397D+00
 Leave Link  703 at Fri Aug 23 16:04:25 2019, MaxMem=  2684354560 cpu:         3.3
 (Enter /soft/gaussian/09-e.01/g09/l716.exe)
 FrcOut:
 IF    =    42 IFX   =    57 IFXYZ =    72
 IFFX  =    87 IFFFX =   207 IFLen =    15
 IFFLen=   120 IFFFLn=     0 IEDerv=   207
 LEDerv=   773 IFroze=  1169 ICStrt=  2337
 Dipole        =-2.22044605D-16-1.38777878D-16-3.60822483D-16
 DipoleDeriv   = 7.50462742D-04 5.64491054D-13 1.17409121D-13
                 2.36249377D-12 7.50462741D-04-2.36647399D-13
                -4.91059884D-13-1.18899747D-12 7.50462743D-04
                -1.87615737D-04-7.35101932D-02-7.35101932D-02
                -7.35101932D-02-1.87615748D-04-7.35101932D-02
                -7.35101932D-02-7.35101932D-02-1.87615745D-04
                -1.87615740D-04-7.35101931D-02 7.35101932D-02
                -7.35101931D-02-1.87615750D-04 7.35101932D-02
                 7.35101931D-02 7.35101932D-02-1.87615760D-04
                -1.87615740D-04 7.35101932D-02-7.35101931D-02
                 7.35101931D-02-1.87615763D-04 7.35101932D-02
                -7.35101931D-02 7.35101932D-02-1.87615747D-04
                -1.87615753D-04 7.35101932D-02 7.35101932D-02
                 7.35101932D-02-1.87615750D-04-7.35101931D-02
                 7.35101931D-02-7.35101931D-02-1.87615747D-04
 Polarizability= 1.23515379D+01 9.07929287D-11 1.23515379D+01
                 9.23223720D-11 7.45421502D-11 1.23515379D+01
 VibFq2-Diag1:  N=     15 IV=           6 MDV=  2684351161 NE2=   178956743
 Full mass-weighted force constant matrix:
 Low frequencies ---   -0.0005    0.0001    0.0002   18.1948   18.1948   18.1948
 Low frequencies --- 1373.1182 1373.1182 1373.1182
 OrtVCM:  Ph=1 IPass= 1 DotMx1= 0.00D+00
 OrtVCM:  IS=    1 I=    1 IndO=    1 Dot= 1.00D+00 DotN= 1.00D+00 ElMax1= 8.65D-01 ElMax1N= 8.65D-01
 OrtVCM:  Ph=2 NNew=    0 IAdd=    2 IPass= 1 DotMx2= 0.00D+00
 OrtVCM:  IS=    1 I=    2 IndO=    2 Dot= 1.00D+00 DotN= 1.00D+00 ElMax1= 8.65D-01 ElMax1N= 8.65D-01
 OrtVCM:  Ph=2 NNew=    0 IAdd=    3 IPass= 1 DotMx2= 0.00D+00
 OrtVCM:  IS=    1 I=    3 IndO=    3 Dot= 1.00D+00 DotN= 1.00D+00 ElMax1= 8.65D-01 ElMax1N= 8.65D-01
 OrtVCM:  Ph=2 NNew=    0 IAdd=    4 IPass= 1 DotMx2= 0.00D+00
 OrtVCM:  IS=    1 I=    4 IndO=    4 Dot= 1.00D+00 DotN= 1.00D+00 ElMax1= 3.54D-01 ElMax1N= 3.54D-01
 OrtVCM:  Ph=2 NNew=    0 IAdd=    5 IPass= 1 DotMx2= 1.39D-16
 OrtVCM:  IS=    1 I=    5 IndO=    5 Dot= 1.00D+00 DotN= 1.00D+00 ElMax1= 3.54D-01 ElMax1N= 3.54D-01
 OrtVCM:  Ph=2 NNew=    0 IAdd=    6 IPass= 1 DotMx2= 1.39D-17
 OrtVCM:  IS=    1 I=    6 IndO=    6 Dot= 1.00D+00 DotN= 1.00D+00 ElMax1= 3.54D-01 ElMax1N= 3.54D-01
 OrtVCM:  Ph=1 IPass= 1 DotMx1= 8.65D-01
 OrtVCM:  Ph=1 IPass= 2 DotMx1= 2.91D-16
 OrtVCM:  IS=    1 I=    1 IndO=    7 Dot= 2.51D-01 DotN= 2.51D-01 ElMax1= 2.51D-01 ElMax1N= 2.51D-01
 OrtVCM:  Ph=2 NNew=    0 IAdd=    2 IPass= 1 DotMx2= 4.28D-50
 OrtVCM:  IS=    1 I=    2 IndO=    8 Dot= 2.51D-01 DotN= 2.51D-01 ElMax1= 2.51D-01 ElMax1N= 2.51D-01
 OrtVCM:  Ph=2 NNew=    0 IAdd=    3 IPass= 1 DotMx2= 2.36D-34
 OrtVCM:  IS=    1 I=    3 IndO=    9 Dot= 2.51D-01 DotN= 2.51D-01 ElMax1= 2.51D-01 ElMax1N= 2.51D-01
 OrtVCM:  Ph=2 NNew=    0 IAdd=    4 IPass= 1 DotMx2= 4.33D-01
 OrtVCM:  Ph=2 NNew=    0 IAdd=    4 IPass= 2 DotMx2= 6.94D-18
 OrtVCM:  IS=    1 I=    4 IndO=   10 Dot= 5.00D-01 DotN= 5.00D-01 ElMax1= 5.00D-01 ElMax1N= 5.00D-01
 OrtVCM:  Ph=2 NNew=    0 IAdd=    5 IPass= 1 DotMx2= 4.33D-01
 OrtVCM:  Ph=2 NNew=    0 IAdd=    5 IPass= 2 DotMx2= 2.78D-17
 OrtVCM:  IS=    1 I=    5 IndO=   11 Dot= 4.69D-01 DotN= 4.69D-01 ElMax1= 4.69D-01 ElMax1N= 4.69D-01
 OrtVCM:  Ph=2 NNew=    0 IAdd=    6 IPass= 1 DotMx2= 4.33D-01
 OrtVCM:  Ph=2 NNew=    0 IAdd=    6 IPass= 2 DotMx2= 2.08D-17
 OrtVCM:  IS=    1 I=    6 IndO=   12 Dot= 4.50D-01 DotN= 4.50D-01 ElMax1= 4.50D-01 ElMax1N= 4.50D-01
 OrtVCM:  Ph=2 NNew=    0 IAdd=    7 IPass= 1 DotMx2= 4.33D-01
 OrtVCM:  Ph=2 NNew=    0 IAdd=    7 IPass= 2 DotMx2= 1.39D-16
 OrtVCM:  IS=    1 I=    7 IndO=   13 Dot= 2.78D-01 DotN= 2.78D-01 ElMax1= 2.78D-01 ElMax1N= 2.78D-01
 OrtVCM:  Ph=2 NNew=    0 IAdd=    8 IPass= 1 DotMx2= 4.33D-01
 OrtVCM:  Ph=2 NNew=    0 IAdd=    8 IPass= 2 DotMx2= 8.33D-17
 OrtVCM:  IS=    1 I=    8 IndO=   14 Dot= 2.67D-01 DotN= 2.67D-01 ElMax1= 2.67D-01 ElMax1N= 2.67D-01
 OrtVCM:  Ph=2 NNew=    0 IAdd=    9 IPass= 1 DotMx2= 5.16D-01
 OrtVCM:  Ph=2 NNew=    0 IAdd=    9 IPass= 2 DotMx2= 1.48D-16
 OrtVCM:  IS=    1 I=    9 IndO=    0 Dot= 1.03D-32 DotN= 1.03D-32 ElMax1= 5.05D-17 ElMax1N= 5.05D-17
 SchOr2:  IPass= 1 Test2A= 1.00D-01 IOff=     0 NDo=     9 NNew=     8
 OrtVCM:  Ph=1 IPass= 1 DotMx1= 4.33D-01
 OrtVCM:  Ph=1 IPass= 2 DotMx1= 1.94D-16
 OrtVCM:  IS=    1 I=    1 IndO=   15 Dot= 2.50D-01 DotN= 2.50D-01 ElMax1= 2.50D-01 ElMax1N= 2.50D-01
 SchOr2:  IPass= 1 Test2A= 1.00D-01 IOff=     9 NDo=     1 NNew=     1
 VibFq2-Diag2:  N=      9 IV=           6 MDV=  2684351161 NE2=   298261239
 Dipole derivative wrt mode   1:  4.51285D-01  2.88859D+00  2.61964D+00
 Vibrational polarizability contributions from mode   1       0.0029068       0.1190936       0.0979495
 Dipole derivative wrt mode   2: -5.22451D-02 -2.63241D+00  2.91167D+00
 Vibrational polarizability contributions from mode   2       0.0000390       0.0989066       0.1210043
 Dipole derivative wrt mode   3: -3.89920D+00  3.69591D-01  2.64179D-01
 Vibrational polarizability contributions from mode   3       0.2170041       0.0019497       0.0009961
 Dipole derivative wrt mode   4: -1.76887D-11  4.98849D-10 -4.79417D-10
 Vibrational polarizability contributions from mode   4       0.0000000       0.0000000       0.0000000
 Dipole derivative wrt mode   5:  5.65416D-10 -2.78552D-10 -3.10001D-10
 Vibrational polarizability contributions from mode   5       0.0000000       0.0000000       0.0000000
 Dipole derivative wrt mode   6: -9.33193D-10 -1.01626D-09 -9.92237D-10
 Vibrational polarizability contributions from mode   6       0.0000000       0.0000000       0.0000000
 Dipole derivative wrt mode   7: -1.29715D-02  4.26834D+00 -2.86146D+00
 Vibrational polarizability contributions from mode   7       0.0000005       0.0490084       0.0220256
 Dipole derivative wrt mode   8: -6.62939D-02  2.86110D+00  4.26809D+00
 Vibrational polarizability contributions from mode   8       0.0000118       0.0220200       0.0490027
 Dipole derivative wrt mode   9:  5.13832D+00  4.76887D-02  4.78428D-02
 Vibrational polarizability contributions from mode   9       0.0710222       0.0000061       0.0000062
 Diagonal vibrational polarizability:
        0.2909844       0.2909844       0.2909844
 NorSel:  MapVib=      1      2      3      4      5      6      7      8      9
 Harmonic frequencies (cm**-1), IR intensities (KM/Mole), Raman scattering
 activities (A**4/AMU), depolarization ratios for plane and unpolarized
 incident light, reduced masses (AMU), force constants (mDyne/A),
 and normal coordinates:
                      1                      2                      3
                     T2                     T2                     T2
 Frequencies --   1373.1182              1373.1182              1373.1182
 Red. masses --      1.1787                 1.1787                 1.1787
 Frc consts  --      1.3094                 1.3094                 1.3094
 IR Inten    --     15.4101                15.4101                15.4101
  Atom  AN      X      Y      Z        X      Y      Z        X      Y      Z
     1   6    -0.01  -0.09  -0.08     0.00   0.08  -0.09     0.12  -0.01  -0.01
     2   1    -0.28   0.09   0.05    -0.02  -0.42   0.43    -0.41   0.25   0.23
     3   1     0.03   0.40   0.45     0.32  -0.07   0.12    -0.37   0.28  -0.18
     4   1     0.06   0.46   0.39    -0.33  -0.08   0.12    -0.36  -0.18   0.28
     5   1     0.37   0.14   0.10     0.01  -0.42   0.43    -0.33  -0.21  -0.23
                      4                      5                      6
                      E                      E                     A1
 Frequencies --   1593.1715              1593.1715              3053.1193
 Red. masses --      1.0078                 1.0078                 1.0078
 Frc consts  --      1.5072                 1.5072                 5.5351
 IR Inten    --      0.0000                 0.0000                 0.0000
  Atom  AN      X      Y      Z        X      Y      Z        X      Y      Z
     1   6    -0.00   0.00  -0.00     0.00  -0.00  -0.00     0.00   0.00   0.00
     2   1    -0.01   0.36  -0.35     0.41  -0.19  -0.22     0.29   0.29   0.29
     3   1     0.01  -0.36  -0.35    -0.41   0.19  -0.22    -0.29  -0.29   0.29
     4   1     0.01   0.36   0.35    -0.41  -0.19   0.22    -0.29   0.29  -0.29
     5   1    -0.01  -0.36   0.35     0.41   0.19   0.22     0.29  -0.29  -0.29
                      7                      8                      9
                     T2                     T2                     T2
 Frequencies --   3162.9372              3162.9372              3162.9372
 Red. masses --      1.1019                 1.1019                 1.1019
 Frc consts  --      6.4947                 6.4947                 6.4947
 IR Inten    --     26.4069                26.4069                26.4069
  Atom  AN      X      Y      Z        X      Y      Z        X      Y      Z
     1   6    -0.00   0.08  -0.05    -0.00   0.05   0.08     0.09   0.00   0.00
     2   1    -0.08  -0.06  -0.09    -0.40  -0.39  -0.39    -0.28  -0.30  -0.30
     3   1    -0.41  -0.39   0.40     0.08   0.09  -0.07    -0.28  -0.29   0.29
     4   1     0.41  -0.39   0.40    -0.08   0.09  -0.06    -0.28   0.29  -0.29
     5   1     0.08  -0.07  -0.09     0.41  -0.40  -0.40    -0.27   0.29   0.29

 -------------------
 - Thermochemistry -
 -------------------
 Temperature   298.150 Kelvin.  Pressure   1.00000 Atm.
 Atom     1 has atomic number  6 and mass  12.00000
 Atom     2 has atomic number  1 and mass   1.00783
 Atom     3 has atomic number  1 and mass   1.00783
 Atom     4 has atomic number  1 and mass   1.00783
 Atom     5 has atomic number  1 and mass   1.00783
 Molecular mass:    16.03130 amu.
 Principal axes and moments of inertia in atomic units:
                           1         2         3
     Eigenvalues --    11.47173  11.47173  11.47173
           X           -0.00000   1.00000   0.00000
           Y            1.00000   0.00000   0.00000
           Z           -0.00000   0.00000   1.00000
 This molecule is a spherical top.
 Rotational symmetry number 12.
 Rotational temperatures (Kelvin)      7.55020     7.55020     7.55020
 Rotational constants (GHZ):         157.32077   157.32077   157.32077
 Zero-point vibrational energy     118715.2 (Joules/Mol)
                                   28.37361 (Kcal/Mol)
 Vibrational temperatures:   1975.61  1975.61  1975.61  2292.22  2292.22
          (Kelvin)           4392.75  4550.76  4550.76  4550.76
 
 Zero-point correction=                           0.045216 (Hartree/Particle)
 Thermal correction to Energy=                    0.048080
 Thermal correction to Enthalpy=                  0.049025
 Thermal correction to Gibbs Free Energy=         0.027893
 Sum of electronic and zero-point Energies=            -40.473167
 Sum of electronic and thermal Energies=               -40.470303
 Sum of electronic and thermal Enthalpies=             -40.469359
 Sum of electronic and thermal Free Energies=          -40.490490
 
                     E (Thermal)             CV                S
                      KCal/Mol        Cal/Mol-Kelvin    Cal/Mol-Kelvin
 Total                   30.171              6.418             44.475
 Electronic               0.000              0.000              0.000
 Translational            0.889              2.981             34.261
 Rotational               0.889              2.981             10.138
 Vibrational             28.393              0.456              0.076
                       Q            Log10(Q)             Ln(Q)
 Total Bot       0.147968D-12        -12.829832        -29.541780
 Total V=0       0.929272D+08          7.968143         18.347327
 Vib (Bot)       0.160012D-20        -20.795849        -47.884211
 Vib (V=0)       0.100491D+01          0.002126          0.004896
 Electronic      0.100000D+01          0.000000          0.000000
 Translational   0.252295D+07          6.401908         14.740939
 Rotational      0.366529D+02          1.564108          3.601493
 
                                                               comment:
                                                             IR Spectrum
 
      3   3                                                          1       1                                                       
      1   0                                                          5       3                                                       
      6   5                                                          9       7                                                       
      3   3                                                          3       3                                                       
 
      X                                                                      X                                                       
      X                                                                      X                                                       
      X                                                                      X                                                       
      X                                                                      X                                                       
      X                                                                      X                                                       
      X                                                                      X                                                       
      X                                                                      X                                                       
      X                                                                      X                                                       
      X                                                                      X                                                       
      X                                                                      X                                                       
      X                                                                      X                                                       
      X                                                                      X                                                       
      X                                                                                                                              
      X                                                                                                                              
      X                                                                                                                              
      X                                                                                                                              
      X                                                                                                                              
      X                                                                                                                              
      X                                                                                                                              
      X                                                                                                                              
 
 Forces in standard orientation:
 -------------------------------------------------------------------
 Center     Atomic                   Forces (Hartrees/Bohr)
 Number     Number              X              Y              Z
 -------------------------------------------------------------------
      1        6          -0.000000000    0.000000000    0.000000000
      2        1           0.000013182    0.000013182    0.000013182
      3        1          -0.000013182   -0.000013182    0.000013182
      4        1          -0.000013182    0.000013182   -0.000013182
      5        1           0.000013182   -0.000013182   -0.000013182
 -------------------------------------------------------------------
 ***** Axes restored to original set *****
 Rotating derivatives, DoTrsp=F IDiff=-2 LEDeriv=    772 LFDPrp=       0 LDFDPr=       0.
 -------------------------------------------------------------------
 Center     Atomic                   Forces (Hartrees/Bohr)
 Number     Number              X              Y              Z
 -------------------------------------------------------------------
      1        6           0.000000000   -0.000000000   -0.000000000
      2        1          -0.000013182   -0.000013182   -0.000013182
      3        1           0.000013182    0.000013182   -0.000013182
      4        1           0.000013182   -0.000013182    0.000013182
      5        1          -0.000013182    0.000013182    0.000013182
 -------------------------------------------------------------------
 Cartesian Forces:  Max     0.000013182 RMS     0.000011790
 Z-matrix is all fixed cartesians, so copy forces.
 Force constants in Cartesian coordinates: 
                1             2             3             4             5 
      1  0.558834D+00
      2  0.000000D+00  0.558834D+00
      3  0.000000D+00  0.000000D+00  0.558834D+00
      4 -0.139708D+00 -0.914858D-01 -0.914858D-01  0.147397D+00
      5 -0.914858D-01 -0.139708D+00 -0.914858D-01  0.100654D+00  0.147397D+00
      6 -0.914858D-01 -0.914858D-01 -0.139708D+00  0.100654D+00  0.100654D+00
      7 -0.139708D+00 -0.914858D-01  0.914858D-01 -0.108339D-01 -0.916798D-02
      8 -0.914858D-01 -0.139708D+00  0.914858D-01 -0.916798D-02 -0.108339D-01
      9  0.914858D-01  0.914858D-01 -0.139708D+00 -0.117919D-01 -0.117919D-01
     10 -0.139708D+00  0.914858D-01 -0.914858D-01 -0.108339D-01  0.117919D-01
     11  0.914858D-01 -0.139708D+00  0.914858D-01 -0.117919D-01  0.139790D-01
     12 -0.914858D-01  0.914858D-01 -0.139708D+00 -0.916798D-02  0.117919D-01
     13 -0.139708D+00  0.914858D-01  0.914858D-01  0.139790D-01 -0.117919D-01
     14  0.914858D-01 -0.139708D+00 -0.914858D-01  0.117919D-01 -0.108339D-01
     15  0.914858D-01 -0.914858D-01 -0.139708D+00  0.117919D-01 -0.916798D-02
                6             7             8             9            10 
      6  0.147397D+00
      7  0.117919D-01  0.147397D+00
      8  0.117919D-01  0.100654D+00  0.147397D+00
      9  0.139790D-01 -0.100654D+00 -0.100654D+00  0.147397D+00
     10 -0.916798D-02  0.139790D-01 -0.117919D-01  0.117919D-01  0.147397D+00
     11 -0.117919D-01  0.117919D-01 -0.108339D-01  0.916798D-02 -0.100654D+00
     12 -0.108339D-01 -0.117919D-01  0.916798D-02 -0.108339D-01  0.100654D+00
     13 -0.117919D-01 -0.108339D-01  0.117919D-01  0.916798D-02 -0.108339D-01
     14 -0.916798D-02 -0.117919D-01  0.139790D-01  0.117919D-01  0.916798D-02
     15 -0.108339D-01  0.916798D-02 -0.117919D-01 -0.108339D-01 -0.117919D-01
               11            12            13            14            15 
     11  0.147397D+00
     12 -0.100654D+00  0.147397D+00
     13  0.916798D-02  0.117919D-01  0.147397D+00
     14 -0.108339D-01 -0.117919D-01 -0.100654D+00  0.147397D+00
     15  0.117919D-01  0.139790D-01 -0.100654D+00  0.100654D+00  0.147397D+00
 Final forces over variables, Energy=-4.05183833D+01:
  2.15173474D-16-1.31820784D-05 1.31820784D-05 1.31820784D-05
 -1.31820784D-05-2.28902184D-16-1.31820784D-05 1.31820784D-05
 -1.31820784D-05 1.31820784D-05-9.31329666D-17-1.31820784D-05
 -1.31820784D-05 1.31820784D-05 1.31820784D-05
 Leave Link  716 at Fri Aug 23 16:04:26 2019, MaxMem=  2684354560 cpu:         4.0
 (Enter /soft/gaussian/09-e.01/g09/l103.exe)

 GradGradGradGradGradGradGradGradGradGradGradGradGradGradGradGradGradGrad
 Berny optimization.
 Search for a local minimum.
 Step number   1 out of a maximum of    2
 All quantities printed in internal units (Hartrees-Bohrs-Radians)
 Second derivative matrix not updated -- analytic derivatives used.
 The second derivative matrix:
                          X1        Y1        Z1        X2        Y2
           X1           0.55883
           Y1           0.00000   0.55883
           Z1           0.00000   0.00000   0.55883
           X2          -0.13971  -0.09149  -0.09149   0.14740
           Y2          -0.09149  -0.13971  -0.09149   0.10065   0.14740
           Z2          -0.09149  -0.09149  -0.13971   0.10065   0.10065
           X3          -0.13971  -0.09149   0.09149  -0.01083  -0.00917
           Y3          -0.09149  -0.13971   0.09149  -0.00917  -0.01083
           Z3           0.09149   0.09149  -0.13971  -0.01179  -0.01179
           X4          -0.13971   0.09149  -0.09149  -0.01083   0.01179
           Y4           0.09149  -0.13971   0.09149  -0.01179   0.01398
           Z4          -0.09149   0.09149  -0.13971  -0.00917   0.01179
           X5          -0.13971   0.09149   0.09149   0.01398  -0.01179
           Y5           0.09149  -0.13971  -0.09149   0.01179  -0.01083
           Z5           0.09149  -0.09149  -0.13971   0.01179  -0.00917
                          Z2        X3        Y3        Z3        X4
           Z2           0.14740
           X3           0.01179   0.14740
           Y3           0.01179   0.10065   0.14740
           Z3           0.01398  -0.10065  -0.10065   0.14740
           X4          -0.00917   0.01398  -0.01179   0.01179   0.14740
           Y4          -0.01179   0.01179  -0.01083   0.00917  -0.10065
           Z4          -0.01083  -0.01179   0.00917  -0.01083   0.10065
           X5          -0.01179  -0.01083   0.01179   0.00917  -0.01083
           Y5          -0.00917  -0.01179   0.01398   0.01179   0.00917
           Z5          -0.01083   0.00917  -0.01179  -0.01083  -0.01179
                          Y4        Z4        X5        Y5        Z5
           Y4           0.14740
           Z4          -0.10065   0.14740
           X5           0.00917   0.01179   0.14740
           Y5          -0.01083  -0.01179  -0.10065   0.14740
           Z5           0.01179   0.01398  -0.10065   0.10065   0.14740
 ITU=  0
     Eigenvalues ---    0.09681   0.09681   0.11685   0.11685   0.11685
     Eigenvalues ---    0.35552   0.73110   0.73110   0.73110
 Angle between quadratic step and forces=   0.00 degrees.
 ClnCor:  largest displacement from symmetrization is 3.80D-14 for atom     4.
 Linear search not attempted -- first point.
 ClnCor:  largest displacement from symmetrization is 4.97D-16 for atom     2.
 B after Tr=     0.000000    0.000000    0.000000
         Rot=    1.000000    0.000000    0.000000    0.000000 Ang=   0.00 deg.
 Variable       Old X    -DE/DX   Delta X   Delta X   Delta X     New X
                                 (Linear)    (Quad)   (Total)
    X1        0.00000   0.00000   0.00000  -0.00000   0.00000   0.00000
    Y1        0.00000  -0.00000   0.00000  -0.00000  -0.00000  -0.00000
    Z1        0.00000  -0.00000   0.00000   0.00000  -0.00000  -0.00000
    X2        1.19283  -0.00001   0.00000  -0.00004  -0.00004   1.19279
    Y2        1.19283  -0.00001   0.00000  -0.00004  -0.00004   1.19279
    Z2        1.19283  -0.00001   0.00000  -0.00004  -0.00004   1.19279
    X3       -1.19283   0.00001   0.00000   0.00004   0.00004  -1.19279
    Y3       -1.19283   0.00001   0.00000   0.00004   0.00004  -1.19279
    Z3        1.19283  -0.00001   0.00000  -0.00004  -0.00004   1.19279
    X4       -1.19283   0.00001   0.00000   0.00004   0.00004  -1.19279
    Y4        1.19283  -0.00001   0.00000  -0.00004  -0.00004   1.19279
    Z4       -1.19283   0.00001   0.00000   0.00004   0.00004  -1.19279
    X5        1.19283  -0.00001   0.00000  -0.00004  -0.00004   1.19279
    Y5       -1.19283   0.00001   0.00000   0.00004   0.00004  -1.19279
    Z5       -1.19283   0.00001   0.00000   0.00004   0.00004  -1.19279
         Item               Value     Threshold  Converged?
 Maximum Force            0.000013     0.000450     YES
 RMS     Force            0.000012     0.000300     YES
 Maximum Displacement     0.000037     0.001800     YES
 RMS     Displacement     0.000033     0.001200     YES
 Predicted change in Energy=-2.932614D-09
 Optimization completed.
    -- Stationary point found.
 GradGradGradGradGradGradGradGradGradGradGradGradGradGradGradGradGradGrad

 Leave Link  103 at Fri Aug 23 16:04:26 2019, MaxMem=  2684354560 cpu:         0.2
 (Enter /soft/gaussian/09-e.01/g09/l9999.exe)

 Test job not archived.
 1\1\GINC-BLUESLOGIN2\Freq\RB3LYP\6-31G(d)\C1H4\ELLIOTT\23-Aug-2019\0\\
 #P b3lyp/6-31g* # SCF=(xqc) # Freq=() # IOp(7/33=1) # int=ultrafine\\c
 omment:\\0,1\C,0.,0.,0.\H,0.631216,0.631216,0.631216\H,-0.631216,-0.63
 1216,0.631216\H,-0.631216,0.631216,-0.631216\H,0.631216,-0.631216,-0.6
 31216\\Version=ES64L-G09RevE.01\State=1-A1\HF=-40.5183833\RMSD=3.025e-
 09\RMSF=1.179e-05\ZeroPoint=0.0452162\Thermal=0.0480804\Dipole=0.,0.,0
 .\DipoleDeriv=0.0007505,0.,0.,0.,0.0007505,0.,0.,0.,0.0007505,-0.00018
 76,-0.0735102,-0.0735102,-0.0735102,-0.0001876,-0.0735102,-0.0735102,-
 0.0735102,-0.0001876,-0.0001876,-0.0735102,0.0735102,-0.0735102,-0.000
 1876,0.0735102,0.0735102,0.0735102,-0.0001876,-0.0001876,0.0735102,-0.
 0735102,0.0735102,-0.0001876,0.0735102,-0.0735102,0.0735102,-0.0001876
 ,-0.0001876,0.0735102,0.0735102,0.0735102,-0.0001876,-0.0735102,0.0735
 102,-0.0735102,-0.0001876\Polar=12.3515379,0.,12.3515379,0.,0.,12.3515
 379\PG=TD [O(C1),4C3(H1)]\NImag=0\\0.55883393,0.,0.55883393,0.,0.,0.55
 883393,-0.13970848,-0.09148582,-0.09148582,0.14739717,-0.09148582,-0.1
 3970848,-0.09148582,0.10065381,0.14739717,-0.09148582,-0.09148582,-0.1
 3970848,0.10065381,0.10065381,0.14739717,-0.13970848,-0.09148582,0.091
 48582,-0.01083386,-0.00916798,0.01179186,0.14739717,-0.09148582,-0.139
 70848,0.09148582,-0.00916798,-0.01083386,0.01179186,0.10065381,0.14739
 717,0.09148582,0.09148582,-0.13970848,-0.01179186,-0.01179186,0.013979
 04,-0.10065381,-0.10065381,0.14739717,-0.13970848,0.09148582,-0.091485
 82,-0.01083386,0.01179186,-0.00916798,0.01397904,-0.01179186,0.0117918
 6,0.14739717,0.09148582,-0.13970848,0.09148582,-0.01179186,0.01397904,
 -0.01179186,0.01179186,-0.01083386,0.00916798,-0.10065381,0.14739717,-
 0.09148582,0.09148582,-0.13970848,-0.00916798,0.01179186,-0.01083386,-
 0.01179186,0.00916798,-0.01083386,0.10065381,-0.10065381,0.14739717,-0
 .13970848,0.09148582,0.09148582,0.01397904,-0.01179186,-0.01179186,-0.
 01083386,0.01179186,0.00916798,-0.01083386,0.00916798,0.01179186,0.147
 39717,0.09148582,-0.13970848,-0.09148582,0.01179186,-0.01083386,-0.009
 16798,-0.01179186,0.01397904,0.01179186,0.00916798,-0.01083386,-0.0117
 9186,-0.10065381,0.14739717,0.09148582,-0.09148582,-0.13970848,0.01179
 186,-0.00916798,-0.01083386,0.00916798,-0.01179186,-0.01083386,-0.0117
 9186,0.01179186,0.01397904,-0.10065381,0.10065381,0.14739717\\0.,0.,0.
 ,0.00001318,0.00001318,0.00001318,-0.00001318,-0.00001318,0.00001318,-
 0.00001318,0.00001318,-0.00001318,0.00001318,-0.00001318,-0.00001318\\
 \@


 REFRAIN FROM ILLUSIONS, INSIST ON WORK AND NOT WORDS,
 PATIENTLY SEEK DIVINE AND SCIENTIFIC TRUTH.
 LAST WORDS OF MARIA MENDELEEVA TO HER SON DMITRI, C. 1850
 Job cpu time:       0 days  0 hours  0 minutes 41.7 seconds.
 File lengths (MBytes):  RWF=    132 Int=      0 D2E=      0 Chk=      2 Scr=      2
 Normal termination of Gaussian 09 at Fri Aug 23 16:04:26 2019.
