 Entering Gaussian System, Link 0=g09
 Input=run.inp
 Output=run.out
 Initial command:
 /soft/gaussian/09-e.01/g09/l1.exe "/blues/gpfs/home/elliott/Packages/PACC/moldriver/rcdriver/tmprundir/RXN/CH3.H2/MDUSDFXREFXETQ/0_0/2_1/UHFFFAOYSA-N/CH4.H/HXBDELFRWIQQII/0_0/1_2/UHFFFAOYSA-N/2/ezvlpJU/SCANS/R6/00/RUN/OPTI/A00/Gau-144231.inp" -scrdir="/blues/gpfs/home/elliott/Packages/PACC/moldriver/rcdriver/tmprundir/RXN/CH3.H2/MDUSDFXREFXETQ/0_0/2_1/UHFFFAOYSA-N/CH4.H/HXBDELFRWIQQII/0_0/1_2/UHFFFAOYSA-N/2/ezvlpJU/SCANS/R6/00/RUN/OPTI/A00/"
 Entering Link 1 = /soft/gaussian/09-e.01/g09/l1.exe PID=    144232.
  
 Copyright (c) 1988,1990,1992,1993,1995,1998,2003,2009,2015,
            Gaussian, Inc.  All Rights Reserved.
  
 This is part of the Gaussian(R) 09 program.  It is based on
 the Gaussian(R) 03 system (copyright 2003, Gaussian, Inc.),
 the Gaussian(R) 98 system (copyright 1998, Gaussian, Inc.),
 the Gaussian(R) 94 system (copyright 1995, Gaussian, Inc.),
 the Gaussian 92(TM) system (copyright 1992, Gaussian, Inc.),
 the Gaussian 90(TM) system (copyright 1990, Gaussian, Inc.),
 the Gaussian 88(TM) system (copyright 1988, Gaussian, Inc.),
 the Gaussian 86(TM) system (copyright 1986, Carnegie Mellon
 University), and the Gaussian 82(TM) system (copyright 1983,
 Carnegie Mellon University). Gaussian is a federally registered
 trademark of Gaussian, Inc.
  
 This software contains proprietary and confidential information,
 including trade secrets, belonging to Gaussian, Inc.
  
 This software is provided under written license and may be
 used, copied, transmitted, or stored only in accord with that
 written license.
  
 The following legend is applicable only to US Government
 contracts under FAR:
  
                    RESTRICTED RIGHTS LEGEND
  
 Use, reproduction and disclosure by the US Government is
 subject to restrictions as set forth in subparagraphs (a)
 and (c) of the Commercial Computer Software - Restricted
 Rights clause in FAR 52.227-19.
  
 Gaussian, Inc.
 340 Quinnipiac St., Bldg. 40, Wallingford CT 06492
  
  
 ---------------------------------------------------------------
 Warning -- This program may not be used in any manner that
 competes with the business of Gaussian, Inc. or will provide
 assistance to any competitor of Gaussian, Inc.  The licensee
 of this program is prohibited from giving any competitor of
 Gaussian, Inc. access to this program.  By using this program,
 the user acknowledges that Gaussian, Inc. is engaged in the
 business of creating and licensing software in the field of
 computational chemistry and represents and warrants to the
 licensee that it is not a competitor of Gaussian, Inc. and that
 it will not use this program in any manner prohibited above.
 ---------------------------------------------------------------
  

 Cite this work as:
 Gaussian 09, Revision E.01,
 M. J. Frisch, G. W. Trucks, H. B. Schlegel, G. E. Scuseria, 
 M. A. Robb, J. R. Cheeseman, G. Scalmani, V. Barone, B. Mennucci, 
 G. A. Petersson, H. Nakatsuji, M. Caricato, X. Li, H. P. Hratchian, 
 A. F. Izmaylov, J. Bloino, G. Zheng, J. L. Sonnenberg, M. Hada, 
 M. Ehara, K. Toyota, R. Fukuda, J. Hasegawa, M. Ishida, T. Nakajima, 
 Y. Honda, O. Kitao, H. Nakai, T. Vreven, J. A. Montgomery, Jr., 
 J. E. Peralta, F. Ogliaro, M. Bearpark, J. J. Heyd, E. Brothers, 
 K. N. Kudin, V. N. Staroverov, T. Keith, R. Kobayashi, J. Normand, 
 K. Raghavachari, A. Rendell, J. C. Burant, S. S. Iyengar, J. Tomasi, 
 M. Cossi, N. Rega, J. M. Millam, M. Klene, J. E. Knox, J. B. Cross, 
 V. Bakken, C. Adamo, J. Jaramillo, R. Gomperts, R. E. Stratmann, 
 O. Yazyev, A. J. Austin, R. Cammi, C. Pomelli, J. W. Ochterski, 
 R. L. Martin, K. Morokuma, V. G. Zakrzewski, G. A. Voth, 
 P. Salvador, J. J. Dannenberg, S. Dapprich, A. D. Daniels, 
 O. Farkas, J. B. Foresman, J. V. Ortiz, J. Cioslowski, 
 and D. J. Fox, Gaussian, Inc., Wallingford CT, 2013.
 
 ******************************************
 Gaussian 09:  ES64L-G09RevE.01 30-Nov-2015
                 5-Sep-2019 
 ******************************************
 %mem=20GB
 %NProcShared=10
 Will use up to   10 processors via shared memory.
 -----------------------------------------------------
 #P b3lyp/6-31g* # SCF=(xqc) # POpt=() # int=ultrafine
 -----------------------------------------------------
 1/10=7,14=-1,26=4,38=1/1,3;
 2/12=2,17=6,18=5,29=3,40=1/2;
 3/5=1,6=6,7=1,11=2,16=1,25=1,30=1,71=1,74=-5,75=-5/1,2,3;
 4//1;
 5/5=2,8=3,13=1,38=5/2,8;
 6/7=2,8=2,9=2,10=2,28=1/1;
 7/29=1/1,2,3,16;
 1/10=7,14=-1,26=4/3(2);
 2/29=3/2;
 99//99;
 2/29=3/2;
 3/5=1,6=6,7=1,11=2,16=1,25=1,30=1,71=1,74=-5,75=-5/1,2,3;
 4/5=5,16=3,69=1/1;
 5/5=2,8=3,13=1,38=5/2,8;
 7//1,2,3,16;
 1/14=-1,26=4/3(-5);
 2/29=3/2;
 6/7=2,8=2,9=2,10=2,19=2,28=1/1;
 99/9=1/99;
 Leave Link    1 at Thu Sep  5 23:03:38 2019, MaxMem=  2684354560 cpu:         6.8
 (Enter /soft/gaussian/09-e.01/g09/l101.exe)
 --------
 comment:
 --------
 Symbolic Z-matrix:
 Charge =  0 Multiplicity = 2
 C
 H                    1    R1
 H                    1    R2       2    A2
 H                    1    R3       2    A3       3    D3       0
 H                    1    R4       2    A4       3    D4       0
 X                    5    R5       1    A5       2    D5       0
 H                    5    R6       6    A6       1    D6       0
       Variables:
  R1                    1.0922                   
  R2                    1.0922                   
  A2                  109.471                    
  R3                    1.0922                   
  A3                  109.471                    
  D3                  120.                       
  R4                    1.0922                   
  A4                  109.471                    
  D4                  240.                       
  A6                   85.                       
  D6                  180.                       
       Constants:
  A5                   90.                       
  D5                  180.                       
  R5                    1.                       
  R6                    0.74                     
 
     3 tetrahedral angles replaced.
 NAtoms=      6 NQM=        6 NQMF=       0 NMMI=      0 NMMIF=      0
                NMic=       0 NMicF=      0.
    3 tetrahedral angles replaced.
                    Isotopes and Nuclear Properties:
 (Nuclear quadrupole moments (NQMom) in fm**2, nuclear magnetic moments (NMagM)
  in nuclear magnetons)

  Atom         1           2           3           4           5           6
 IAtWgt=          12           1           1           1           1           1
 AtmWgt=  12.0000000   1.0078250   1.0078250   1.0078250   1.0078250   1.0078250
 NucSpn=           0           1           1           1           1           1
 AtZEff=   0.0000000   0.0000000   0.0000000   0.0000000   0.0000000   0.0000000
 NQMom=    0.0000000   0.0000000   0.0000000   0.0000000   0.0000000   0.0000000
 NMagM=    0.0000000   2.7928460   2.7928460   2.7928460   2.7928460   2.7928460
 AtZNuc=   6.0000000   1.0000000   1.0000000   1.0000000   1.0000000   1.0000000
 Leave Link  101 at Thu Sep  5 23:03:38 2019, MaxMem=  2684354560 cpu:         0.9
 (Enter /soft/gaussian/09-e.01/g09/l103.exe)

 GradGradGradGradGradGradGradGradGradGradGradGradGradGradGradGradGradGrad
 Berny optimization.
 Initialization pass.
                       ----------------------------
                       !    Initial Parameters    !
                       ! (Angstroms and Degrees)  !
 ----------------------                            ----------------------
 !      Name          Value   Derivative information (Atomic Units)     !
 ------------------------------------------------------------------------
 !       R1          1.0922   estimate D2E/DX2                          !
 !       R2          1.0922   estimate D2E/DX2                          !
 !       A2        109.4712   estimate D2E/DX2                          !
 !       R3          1.0922   estimate D2E/DX2                          !
 !       A3        109.4712   estimate D2E/DX2                          !
 !       D3        120.0      estimate D2E/DX2                          !
 !       R4          1.0922   estimate D2E/DX2                          !
 !       A4        109.4712   estimate D2E/DX2                          !
 !       D4        240.0      estimate D2E/DX2                          !
 !       A6         85.0      estimate D2E/DX2                          !
 !       D6        180.0      estimate D2E/DX2                          !
 !       A5         90.0      Frozen                                    !
 !       D5        180.0      Frozen                                    !
 !       R5          1.0      Frozen                                    !
 !       R6          0.74     Frozen                                    !
 ------------------------------------------------------------------------
 Trust Radius=3.00D-01 FncErr=1.00D-07 GrdErr=1.00D-06
 Number of steps in this run=     25 maximum allowed number of steps=    100.
 GradGradGradGradGradGradGradGradGradGradGradGradGradGradGradGradGradGrad

 Leave Link  103 at Thu Sep  5 23:03:38 2019, MaxMem=  2684354560 cpu:         0.8
 (Enter /soft/gaussian/09-e.01/g09/l202.exe)
 ---------------------------------------------------------------------------------------------------
                            Z-MATRIX (ANGSTROMS AND DEGREES)
   CD    Cent   Atom    N1       Length/X        N2       Alpha/Y        N3        Beta/Z          J
 ---------------------------------------------------------------------------------------------------
      1      1  C 
      2      2  H        1   1.092201(     1)
      3      3  H        1   1.092201(     2)      2  109.471(     7)
      4      4  H        1   1.092201(     3)      2  109.471(     8)      3  120.000(    12)      0
      5      5  H        1   1.092201(     4)      2  109.471(     9)      3  240.000(    13)      0
      6         X        5   1.000000(     5)      1   90.000(    10)      2  180.000(    14)      0
      7      6  H        5   0.740000(     6)      6   85.000(    11)      1  180.000(    15)      0
 ---------------------------------------------------------------------------------------------------
                         Z-Matrix orientation:                         
 ---------------------------------------------------------------------
 Center     Atomic      Atomic             Coordinates (Angstroms)
 Number     Number       Type             X           Y           Z
 ---------------------------------------------------------------------
      1          6           0        0.000000    0.000000    0.000000
      2          1           0        0.000000    0.000000    1.092201
      3          1           0        1.029737    0.000000   -0.364067
      4          1           0       -0.514868   -0.891778   -0.364067
      5          1           0       -0.514868    0.891778   -0.364067
      6         -1           0       -0.348202    0.603103   -1.306876
      7          1           0       -0.851631    1.475068   -0.670602
 ---------------------------------------------------------------------
                    Distance matrix (angstroms):
                    1          2          3          4          5
     1  C    0.000000
     2  H    1.092201   0.000000
     3  H    1.092201   1.783557   0.000000
     4  H    1.092201   1.783557   1.783557   0.000000
     5  H    1.092201   1.783557   1.783557   1.783557   0.000000
     6  X    1.480845   2.498109   1.775201   1.775201   1.000000
     7  H    1.830522   2.451240   2.410257   2.410257   0.740000
                    6          7
     6  X    0.000000
     7  H    1.191054   0.000000
 This structure is nearly, but not quite of a higher symmetry.
 Consider Symm=Loose if the higher symmetry is desired.
 Stoichiometry    CH5(2)
 Framework group  CS[SG(CH3),X(H2)]
 Deg. of freedom     8
 Full point group                 CS      NOp   2
 Largest Abelian subgroup         CS      NOp   2
 Largest concise Abelian subgroup CS      NOp   2
                         Standard orientation:                         
 ---------------------------------------------------------------------
 Center     Atomic      Atomic             Coordinates (Angstroms)
 Number     Number       Type             X           Y           Z
 ---------------------------------------------------------------------
      1          6           0       -0.000000    0.166411    0.000000
      2          1           0        1.016270    0.566533   -0.000000
      3          1           0       -0.527376    0.512112    0.891778
      4          1           0       -0.527376    0.512112   -0.891778
      5          1           0        0.038482   -0.925112   -0.000000
      6          1           0        0.000000   -1.664111   -0.000000
 ---------------------------------------------------------------------
 Rotational constants (GHZ):    157.6370072     79.1726441     79.1726441
 Leave Link  202 at Thu Sep  5 23:03:38 2019, MaxMem=  2684354560 cpu:         0.3
 (Enter /soft/gaussian/09-e.01/g09/l301.exe)
 Standard basis: 6-31G(d) (6D, 7F)
 Ernie: Thresh=  0.10000D-02 Tol=  0.10000D-05 Strict=F.
 There are    19 symmetry adapted cartesian basis functions of A'  symmetry.
 There are     6 symmetry adapted cartesian basis functions of A"  symmetry.
 There are    19 symmetry adapted basis functions of A'  symmetry.
 There are     6 symmetry adapted basis functions of A"  symmetry.
    25 basis functions,    48 primitive gaussians,    25 cartesian basis functions
     6 alpha electrons        5 beta electrons
       nuclear repulsion energy        16.5129173396 Hartrees.
 IExCor=  402 DFT=T Ex+Corr=B3LYP ExCW=0 ScaHFX=  0.200000
 ScaDFX=  0.800000  0.720000  1.000000  0.810000 ScalE2=  1.000000  1.000000
 IRadAn=      5 IRanWt=     -1 IRanGd=            0 ICorTp=0 IEmpDi=  4
 NAtoms=    6 NActive=    6 NUniq=    5 SFac= 1.44D+00 NAtFMM=   60 NAOKFM=F Big=F
 Integral buffers will be    131072 words long.
 Raffenetti 2 integral format.
 Two-electron integral symmetry is turned on.
 Leave Link  301 at Thu Sep  5 23:03:40 2019, MaxMem=  2684354560 cpu:         1.4
 (Enter /soft/gaussian/09-e.01/g09/l302.exe)
 NPDir=0 NMtPBC=     1 NCelOv=     1 NCel=       1 NClECP=     1 NCelD=      1
         NCelK=      1 NCelE2=     1 NClLst=     1 CellRange=     0.0.
 One-electron integrals computed using PRISM.
 One-electron integral symmetry used in STVInt
 NBasis=    25 RedAO= T EigKep=  8.98D-03  NBF=    19     6
 NBsUse=    25 1.00D-06 EigRej= -1.00D+00 NBFU=    19     6
 Precomputing XC quadrature grid using
 IXCGrd= 4 IRadAn=           5 IRanWt=          -1 IRanGd=           0 AccXCQ= 0.00D+00.
 Generated NRdTot=       0 NPtTot=           0 NUsed=           0 NTot=          32
 NSgBfM=    25    25    25    25    25 MxSgAt=     6 MxSgA2=     6.
 Leave Link  302 at Thu Sep  5 23:03:40 2019, MaxMem=  2684354560 cpu:         3.0
 (Enter /soft/gaussian/09-e.01/g09/l303.exe)
 DipDrv:  MaxL=1.
 Leave Link  303 at Thu Sep  5 23:03:41 2019, MaxMem=  2684354560 cpu:         6.3
 (Enter /soft/gaussian/09-e.01/g09/l401.exe)
 ExpMin= 1.61D-01 ExpMax= 3.05D+03 ExpMxC= 4.57D+02 IAcc=3 IRadAn=         5 AccDes= 0.00D+00
 Harris functional with IExCor=  402 and IRadAn=       5 diagonalized for initial guess.
 HarFok:  IExCor=  402 AccDes= 0.00D+00 IRadAn=         5 IDoV= 1 UseB2=F ITyADJ=14
 ICtDFT=  3500011 ScaDFX=  1.000000  1.000000  1.000000  1.000000
 FoFCou: FMM=F IPFlag=           0 FMFlag=      100000 FMFlg1=           0
         NFxFlg=           0 DoJE=T BraDBF=F KetDBF=T FulRan=T
         wScrn=  0.000000 ICntrl=     500 IOpCl=  0 I1Cent=   200000004 NGrid=           0
         NMat0=    1 NMatS0=      1 NMatT0=    0 NMatD0=    1 NMtDS0=    0 NMtDT0=    0
 Petite list used in FoFCou.
 Harris En= -40.9783803859943    
 JPrj=0 DoOrth=F DoCkMO=F.
 Initial guess orbital symmetries:
 Alpha Orbitals:
       Occupied  (A') (A') (A') (A") (A') (A')
       Virtual   (A') (A') (A") (A') (A') (A") (A') (A') (A') (A")
                 (A') (A') (A') (A") (A') (A") (A') (A') (A')
 Beta  Orbitals:
       Occupied  (A') (A') (A') (A") (A')
       Virtual   (A') (A') (A') (A") (A') (A') (A") (A') (A') (A')
                 (A") (A') (A') (A') (A") (A') (A") (A') (A') (A')
 The electronic state of the initial guess is 2-A'.
 Initial guess <Sx>= 0.0000 <Sy>= 0.0000 <Sz>= 0.5000 <S**2>= 0.7500 S= 0.5000
 Leave Link  401 at Thu Sep  5 23:03:42 2019, MaxMem=  2684354560 cpu:         4.1
 (Enter /soft/gaussian/09-e.01/g09/l502.exe)
 UHF open shell SCF:
 Using DIIS extrapolation, IDIIS=  1040.
 Integral symmetry usage will be decided dynamically.
 Keep R1 and R2 ints in memory in symmetry-blocked form, NReq=929304.
 IVT=        8311 IEndB=        8311 NGot=  2684354560 MDV=  2684287457
 LenX=  2684287457 LenY=  2684286391
 Requested convergence on RMS density matrix=1.00D-08 within  64 cycles.
 Requested convergence on MAX density matrix=1.00D-06.
 Requested convergence on             energy=1.00D-06.
 No special actions if energy rises.
 FoFCou: FMM=F IPFlag=           0 FMFlag=           0 FMFlg1=           0
         NFxFlg=           0 DoJE=F BraDBF=F KetDBF=F FulRan=T
         wScrn=  0.000000 ICntrl=     600 IOpCl=  0 I1Cent=           0 NGrid=           0
         NMat0=    1 NMatS0=    325 NMatT0=    0 NMatD0=    1 NMtDS0=    0 NMtDT0=    0
 Petite list used in FoFCou.
 Integral accuracy reduced to 1.0D-05 until final iterations.

 Cycle   1  Pass 0  IDiag  1:
 E= -40.8778711227470    
 DIIS: error= 7.00D-02 at cycle   1 NSaved=   1.
 NSaved= 1 IEnMin= 1 EnMin= -40.8778711227470     IErMin= 1 ErrMin= 7.00D-02
 ErrMax= 7.00D-02  0.00D+00 EMaxC= 1.00D-01 BMatC= 3.05D-01 BMatP= 3.05D-01
 IDIUse=3 WtCom= 3.00D-01 WtEn= 7.00D-01
 Coeff-Com:  0.100D+01
 Coeff-En:   0.100D+01
 Coeff:      0.100D+01
 Gap=     0.276 Goal=   None    Shift=    0.000
 Gap=     0.330 Goal=   None    Shift=    0.000
 GapD=    0.276 DampG=1.000 DampE=0.500 DampFc=0.5000 IDamp=-1.
 Damping current iteration by 5.00D-01
 RMSDP=3.56D-02 MaxDP=5.45D-01              OVMax= 1.94D-01

 Cycle   2  Pass 0  IDiag  1:
 E= -40.9159718424873     Delta-E=       -0.038100719740 Rises=F Damp=T
 DIIS: error= 1.22D-02 at cycle   2 NSaved=   2.
 NSaved= 2 IEnMin= 2 EnMin= -40.9159718424873     IErMin= 2 ErrMin= 1.22D-02
 ErrMax= 1.22D-02  0.00D+00 EMaxC= 1.00D-01 BMatC= 1.02D-02 BMatP= 3.05D-01
 IDIUse=3 WtCom= 8.78D-01 WtEn= 1.22D-01
 Coeff-Com:  0.756D-01 0.924D+00
 Coeff-En:   0.115D+00 0.885D+00
 Coeff:      0.804D-01 0.920D+00
 Gap=     0.299 Goal=   None    Shift=    0.000
 Gap=     0.364 Goal=   None    Shift=    0.000
 RMSDP=4.36D-03 MaxDP=7.81D-02 DE=-3.81D-02 OVMax= 1.06D-01

 Cycle   3  Pass 0  IDiag  1:
 E= -40.9618013388222     Delta-E=       -0.045829496335 Rises=F Damp=F
 DIIS: error= 1.74D-03 at cycle   3 NSaved=   3.
 NSaved= 3 IEnMin= 3 EnMin= -40.9618013388222     IErMin= 3 ErrMin= 1.74D-03
 ErrMax= 1.74D-03  0.00D+00 EMaxC= 1.00D-01 BMatC= 2.24D-04 BMatP= 1.02D-02
 IDIUse=3 WtCom= 9.83D-01 WtEn= 1.74D-02
 Coeff-Com: -0.165D-02 0.107D-01 0.991D+00
 Coeff-En:   0.000D+00 0.000D+00 0.100D+01
 Coeff:     -0.162D-02 0.106D-01 0.991D+00
 Gap=     0.304 Goal=   None    Shift=    0.000
 Gap=     0.365 Goal=   None    Shift=    0.000
 RMSDP=1.19D-03 MaxDP=1.33D-02 DE=-4.58D-02 OVMax= 5.56D-03

 Cycle   4  Pass 0  IDiag  1:
 E= -40.9618906806965     Delta-E=       -0.000089341874 Rises=F Damp=F
 DIIS: error= 4.71D-04 at cycle   4 NSaved=   4.
 NSaved= 4 IEnMin= 4 EnMin= -40.9618906806965     IErMin= 4 ErrMin= 4.71D-04
 ErrMax= 4.71D-04  0.00D+00 EMaxC= 1.00D-01 BMatC= 1.64D-05 BMatP= 2.24D-04
 IDIUse=3 WtCom= 9.95D-01 WtEn= 4.71D-03
 Coeff-Com: -0.216D-02-0.204D-01 0.351D-01 0.987D+00
 Coeff-En:   0.000D+00 0.000D+00 0.000D+00 0.100D+01
 Coeff:     -0.215D-02-0.203D-01 0.349D-01 0.988D+00
 Gap=     0.303 Goal=   None    Shift=    0.000
 Gap=     0.367 Goal=   None    Shift=    0.000
 RMSDP=1.61D-04 MaxDP=1.34D-03 DE=-8.93D-05 OVMax= 2.13D-03

 Cycle   5  Pass 0  IDiag  1:
 E= -40.9618982535275     Delta-E=       -0.000007572831 Rises=F Damp=F
 DIIS: error= 1.32D-04 at cycle   5 NSaved=   5.
 NSaved= 5 IEnMin= 5 EnMin= -40.9618982535275     IErMin= 5 ErrMin= 1.32D-04
 ErrMax= 1.32D-04  0.00D+00 EMaxC= 1.00D-01 BMatC= 1.54D-06 BMatP= 1.64D-05
 IDIUse=3 WtCom= 9.99D-01 WtEn= 1.32D-03
 Coeff-Com: -0.720D-03-0.863D-03-0.524D-01 0.821D-01 0.972D+00
 Coeff-En:   0.000D+00 0.000D+00 0.000D+00 0.000D+00 0.100D+01
 Coeff:     -0.719D-03-0.862D-03-0.524D-01 0.820D-01 0.972D+00
 Gap=     0.303 Goal=   None    Shift=    0.000
 Gap=     0.367 Goal=   None    Shift=    0.000
 RMSDP=7.37D-05 MaxDP=7.78D-04 DE=-7.57D-06 OVMax= 4.43D-04

 Cycle   6  Pass 0  IDiag  1:
 E= -40.9618989361644     Delta-E=       -0.000000682637 Rises=F Damp=F
 DIIS: error= 3.40D-05 at cycle   6 NSaved=   6.
 NSaved= 6 IEnMin= 6 EnMin= -40.9618989361644     IErMin= 6 ErrMin= 3.40D-05
 ErrMax= 3.40D-05  0.00D+00 EMaxC= 1.00D-01 BMatC= 9.48D-08 BMatP= 1.54D-06
 IDIUse=1 WtCom= 1.00D+00 WtEn= 0.00D+00
 Coeff-Com: -0.383D-04 0.951D-03-0.104D-01-0.364D-01 0.138D+00 0.908D+00
 Coeff:     -0.383D-04 0.951D-03-0.104D-01-0.364D-01 0.138D+00 0.908D+00
 Gap=     0.303 Goal=   None    Shift=    0.000
 Gap=     0.367 Goal=   None    Shift=    0.000
 RMSDP=1.13D-05 MaxDP=6.58D-05 DE=-6.83D-07 OVMax= 1.05D-04

 Cycle   7  Pass 0  IDiag  1:
 E= -40.9618989838941     Delta-E=       -0.000000047730 Rises=F Damp=F
 DIIS: error= 8.60D-06 at cycle   7 NSaved=   7.
 NSaved= 7 IEnMin= 7 EnMin= -40.9618989838941     IErMin= 7 ErrMin= 8.60D-06
 ErrMax= 8.60D-06  0.00D+00 EMaxC= 1.00D-01 BMatC= 7.09D-09 BMatP= 9.48D-08
 IDIUse=1 WtCom= 1.00D+00 WtEn= 0.00D+00
 Coeff-Com:  0.926D-04-0.127D-03 0.697D-02-0.221D-02-0.108D+00-0.189D+00
 Coeff-Com:  0.129D+01
 Coeff:      0.926D-04-0.127D-03 0.697D-02-0.221D-02-0.108D+00-0.189D+00
 Coeff:      0.129D+01
 Gap=     0.303 Goal=   None    Shift=    0.000
 Gap=     0.367 Goal=   None    Shift=    0.000
 RMSDP=6.70D-06 MaxDP=6.61D-05 DE=-4.77D-08 OVMax= 4.66D-05

 Initial convergence to 1.0D-05 achieved.  Increase integral accuracy.
 Cycle   8  Pass 1  IDiag  1:
 E= -40.9618977695164     Delta-E=        0.000001214378 Rises=F Damp=F
 DIIS: error= 9.22D-07 at cycle   1 NSaved=   1.
 NSaved= 1 IEnMin= 1 EnMin= -40.9618977695164     IErMin= 1 ErrMin= 9.22D-07
 ErrMax= 9.22D-07  0.00D+00 EMaxC= 1.00D-01 BMatC= 1.05D-10 BMatP= 1.05D-10
 IDIUse=1 WtCom= 1.00D+00 WtEn= 0.00D+00
 Coeff-Com:  0.100D+01
 Coeff:      0.100D+01
 Gap=     0.303 Goal=   None    Shift=    0.000
 Gap=     0.367 Goal=   None    Shift=    0.000
 RMSDP=6.70D-06 MaxDP=6.61D-05 DE= 1.21D-06 OVMax= 3.54D-06

 Cycle   9  Pass 1  IDiag  1:
 E= -40.9618977695835     Delta-E=       -0.000000000067 Rises=F Damp=F
 DIIS: error= 3.32D-07 at cycle   2 NSaved=   2.
 NSaved= 2 IEnMin= 2 EnMin= -40.9618977695835     IErMin= 2 ErrMin= 3.32D-07
 ErrMax= 3.32D-07  0.00D+00 EMaxC= 1.00D-01 BMatC= 1.25D-11 BMatP= 1.05D-10
 IDIUse=1 WtCom= 1.00D+00 WtEn= 0.00D+00
 Coeff-Com: -0.280D+00 0.128D+01
 Coeff:     -0.280D+00 0.128D+01
 Gap=     0.303 Goal=   None    Shift=    0.000
 Gap=     0.367 Goal=   None    Shift=    0.000
 RMSDP=1.90D-07 MaxDP=1.23D-06 DE=-6.71D-11 OVMax= 1.43D-06

 Cycle  10  Pass 1  IDiag  1:
 E= -40.9618977695932     Delta-E=       -0.000000000010 Rises=F Damp=F
 DIIS: error= 1.08D-07 at cycle   3 NSaved=   3.
 NSaved= 3 IEnMin= 3 EnMin= -40.9618977695932     IErMin= 3 ErrMin= 1.08D-07
 ErrMax= 1.08D-07  0.00D+00 EMaxC= 1.00D-01 BMatC= 1.06D-12 BMatP= 1.25D-11
 IDIUse=1 WtCom= 1.00D+00 WtEn= 0.00D+00
 Coeff-Com: -0.885D-01 0.902D-01 0.998D+00
 Coeff:     -0.885D-01 0.902D-01 0.998D+00
 Gap=     0.303 Goal=   None    Shift=    0.000
 Gap=     0.367 Goal=   None    Shift=    0.000
 RMSDP=5.43D-08 MaxDP=3.81D-07 DE=-9.67D-12 OVMax= 4.23D-07

 Cycle  11  Pass 1  IDiag  1:
 E= -40.9618977695939     Delta-E=       -0.000000000001 Rises=F Damp=F
 DIIS: error= 3.12D-08 at cycle   4 NSaved=   4.
 NSaved= 4 IEnMin= 4 EnMin= -40.9618977695939     IErMin= 4 ErrMin= 3.12D-08
 ErrMax= 3.12D-08  0.00D+00 EMaxC= 1.00D-01 BMatC= 6.33D-14 BMatP= 1.06D-12
 IDIUse=1 WtCom= 1.00D+00 WtEn= 0.00D+00
 Coeff-Com:  0.165D-01-0.917D-01 0.425D-01 0.103D+01
 Coeff:      0.165D-01-0.917D-01 0.425D-01 0.103D+01
 Gap=     0.303 Goal=   None    Shift=    0.000
 Gap=     0.367 Goal=   None    Shift=    0.000
 RMSDP=1.35D-08 MaxDP=1.60D-07 DE=-6.89D-13 OVMax= 1.16D-07

 Cycle  12  Pass 1  IDiag  1:
 E= -40.9618977695939     Delta-E=       -0.000000000000 Rises=F Damp=F
 DIIS: error= 5.76D-09 at cycle   5 NSaved=   5.
 NSaved= 5 IEnMin= 5 EnMin= -40.9618977695939     IErMin= 5 ErrMin= 5.76D-09
 ErrMax= 5.76D-09  0.00D+00 EMaxC= 1.00D-01 BMatC= 2.19D-15 BMatP= 6.33D-14
 IDIUse=1 WtCom= 1.00D+00 WtEn= 0.00D+00
 Coeff-Com:  0.361D-02-0.876D-02-0.361D-01 0.783D-01 0.963D+00
 Coeff:      0.361D-02-0.876D-02-0.361D-01 0.783D-01 0.963D+00
 Gap=     0.303 Goal=   None    Shift=    0.000
 Gap=     0.367 Goal=   None    Shift=    0.000
 RMSDP=4.08D-09 MaxDP=4.93D-08 DE=-4.26D-14 OVMax= 2.24D-08

 SCF Done:  E(UB3LYP) =  -40.9618977696     A.U. after   12 cycles
            NFock= 12  Conv=0.41D-08     -V/T= 2.0009
 <Sx>= 0.0000 <Sy>= 0.0000 <Sz>= 0.5000 <S**2>= 0.7533 S= 0.5016
 <L.S>= 0.000000000000E+00
 KE= 4.092493120084D+01 PE=-1.270319022089D+02 EE= 2.863215589887D+01
 Annihilation of the first spin contaminant:
 S**2 before annihilation     0.7533,   after     0.7500
 Leave Link  502 at Thu Sep  5 23:03:43 2019, MaxMem=  2684354560 cpu:         9.5
 (Enter /soft/gaussian/09-e.01/g09/l508.exe)
 QCSCF skips out because SCF is already converged.
 Leave Link  508 at Thu Sep  5 23:03:44 2019, MaxMem=  2684354560 cpu:         0.0
 (Enter /soft/gaussian/09-e.01/g09/l601.exe)
 Copying SCF densities to generalized density rwf, IOpCl= 1 IROHF=0.

 **********************************************************************

            Population analysis using the SCF density.

 **********************************************************************

 Orbital symmetries:
 Alpha Orbitals:
       Occupied  (A') (A') (A') (A') (A") (A')
       Virtual   (A') (A') (A") (A') (A') (A") (A') (A') (A') (A")
                 (A') (A') (A') (A") (A') (A") (A') (A') (A')
 Beta  Orbitals:
       Occupied  (A') (A') (A') (A") (A')
       Virtual   (A') (A') (A') (A") (A') (A') (A") (A') (A') (A')
                 (A") (A') (A') (A') (A") (A') (A") (A') (A') (A')
 The electronic state is 2-A'.
 Alpha  occ. eigenvalues --  -10.18008  -0.73815  -0.51846  -0.40694  -0.40692
 Alpha  occ. eigenvalues --   -0.18132
 Alpha virt. eigenvalues --    0.12186   0.16157   0.16182   0.27180   0.51653
 Alpha virt. eigenvalues --    0.51733   0.54838   0.69251   0.88106   0.88131
 Alpha virt. eigenvalues --    0.94272   1.13962   1.27470   1.62478   1.62628
 Alpha virt. eigenvalues --    2.22012   2.22034   2.33331   4.20632
  Beta  occ. eigenvalues --  -10.16994  -0.71112  -0.47754  -0.40042  -0.40033
  Beta virt. eigenvalues --   -0.03332   0.12701   0.16809   0.16825   0.29959
  Beta virt. eigenvalues --    0.51952   0.51990   0.58444   0.72918   0.88976
  Beta virt. eigenvalues --    0.88976   0.95031   1.18883   1.28982   1.65136
  Beta virt. eigenvalues --    1.65281   2.23691   2.23722   2.37095   4.22583
          Condensed to atoms (all electrons):
               1          2          3          4          5          6
     1  C    5.551269   0.359415   0.366114   0.366114   0.249963  -0.357996
     2  H    0.359415   0.525556  -0.022640  -0.022640  -0.020525   0.011423
     3  H    0.366114  -0.022640   0.524472  -0.022887  -0.026452   0.011418
     4  H    0.366114  -0.022640  -0.022887   0.524472  -0.026452   0.011418
     5  H    0.249963  -0.020525  -0.026452  -0.026452   0.613027   0.153137
     6  H   -0.357996   0.011423   0.011418   0.011418   0.153137   1.202384
          Atomic-Atomic Spin Densities.
               1          2          3          4          5          6
     1  C    0.912062  -0.035471  -0.032636  -0.032636   0.056186  -0.385061
     2  H   -0.035471  -0.001248   0.005552   0.005552   0.002467   0.015006
     3  H   -0.032636   0.005552  -0.006089   0.005096   0.003094   0.014314
     4  H   -0.032636   0.005552   0.005096  -0.006089   0.003094   0.014314
     5  H    0.056186   0.002467   0.003094   0.003094  -0.149796  -0.045698
     6  H   -0.385061   0.015006   0.014314   0.014314  -0.045698   1.064811
 Mulliken charges and spin densities:
               1          2
     1  C   -0.534879   0.482445
     2  H    0.169409  -0.008142
     3  H    0.169976  -0.010668
     4  H    0.169976  -0.010668
     5  H    0.057301  -0.130654
     6  H   -0.031783   0.677688
 Sum of Mulliken charges =   0.00000   1.00000
 Mulliken charges and spin densities with hydrogens summed into heavy atoms:
               1          2
     1  C    0.000000   1.000000
 Electronic spatial extent (au):  <R**2>=             50.0411
 Charge=              0.0000 electrons
 Dipole moment (field-independent basis, Debye):
    X=             -0.0031    Y=              0.7904    Z=             -0.0000  Tot=              0.7904
 Quadrupole moment (field-independent basis, Debye-Ang):
   XX=             -9.1537   YY=            -11.4501   ZZ=             -9.1527
   XY=              0.0047   XZ=              0.0000   YZ=             -0.0000
 Traceless Quadrupole moment (field-independent basis, Debye-Ang):
   XX=              0.7651   YY=             -1.5313   ZZ=              0.7662
   XY=              0.0047   XZ=              0.0000   YZ=             -0.0000
 Octapole moment (field-independent basis, Debye-Ang**2):
  XXX=              0.5662  YYY=              5.8570  ZZZ=             -0.0000  XYY=              0.0377
  XXY=              1.0246  XXZ=             -0.0000  XZZ=             -0.6085  YZZ=              0.9852
  YYZ=             -0.0000  XYZ=              0.0000
 Hexadecapole moment (field-independent basis, Debye-Ang**3):
 XXXX=            -15.8424 YYYY=            -49.5399 ZZZZ=            -15.7863 XXXY=              0.4362
 XXXZ=              0.0000 YYYX=              0.0161 YYYZ=             -0.0000 ZZZX=              0.0000
 ZZZY=             -0.0000 XXYY=             -9.3235 XXZZ=             -5.2396 YYZZ=             -9.3798
 XXYZ=             -0.0000 YYXZ=              0.0000 ZZXY=             -0.4372
 N-N= 1.651291733959D+01 E-N=-1.270319023185D+02  KE= 4.092493120084D+01
 Symmetry A'   KE= 3.898749245318D+01
 Symmetry A"   KE= 1.937438747660D+00
                          Isotropic Fermi Contact Couplings
        Atom                 a.u.       MegaHertz       Gauss      10(-4) cm-1
     1  C(13)              0.32246     362.50941     129.35237     120.92012
     2  H(1)              -0.00414     -18.51524      -6.60670      -6.17602
     3  H(1)              -0.00511     -22.86047      -8.15718      -7.62543
     4  H(1)              -0.00511     -22.86047      -8.15718      -7.62543
     5  H(1)              -0.02925    -130.75775     -46.65761     -43.61609
     6  H(1)               0.21784     973.69972     347.44026     324.79127
 --------------------------------------------------------
       Center         ----  Spin Dipole Couplings  ----
                      3XX-RR        3YY-RR        3ZZ-RR
 --------------------------------------------------------
     1   Atom       -0.286252      0.572040     -0.285788
     2   Atom        0.027070      0.009238     -0.036307
     3   Atom       -0.019255      0.007479      0.011777
     4   Atom       -0.019255      0.007479      0.011777
     5   Atom       -0.168304      0.337023     -0.168719
     6   Atom        0.006679     -0.013487      0.006808
 --------------------------------------------------------
                        XY            XZ            YZ
 --------------------------------------------------------
     1   Atom       -0.024757      0.000000      0.000000
     2   Atom        0.026274     -0.000000     -0.000000
     3   Atom       -0.013918     -0.028730      0.022083
     4   Atom       -0.013918      0.028730     -0.022083
     5   Atom        0.004084     -0.000000      0.000000
     6   Atom       -0.001835     -0.000000      0.000000
 --------------------------------------------------------


 ---------------------------------------------------------------------------------
              Anisotropic Spin Dipole Couplings in Principal Axis System
 ---------------------------------------------------------------------------------

       Atom             a.u.   MegaHertz   Gauss  10(-4) cm-1        Axes

              Baa    -0.2870   -38.508   -13.741   -12.845  0.9996  0.0288 -0.0000
     1 C(13)  Bbb    -0.2858   -38.350   -13.684   -12.792  0.0000  0.0000  1.0000
              Bcc     0.5728    76.858    27.425    25.637 -0.0288  0.9996  0.0000
 
              Baa    -0.0363   -19.372    -6.912    -6.462  0.0000  0.0000  1.0000
     2 H(1)   Bbb    -0.0096    -5.118    -1.826    -1.707 -0.5825  0.8128  0.0000
              Bcc     0.0459    24.489     8.738     8.169  0.8128  0.5825 -0.0000
 
              Baa    -0.0364   -19.424    -6.931    -6.479  0.8626  0.0192  0.5056
     3 H(1)   Bbb    -0.0100    -5.337    -1.904    -1.780  0.2679  0.8304 -0.4885
              Bcc     0.0464    24.761     8.835     8.259 -0.4292  0.5568  0.7111
 
              Baa    -0.0364   -19.424    -6.931    -6.479  0.8626  0.0192 -0.5056
     4 H(1)   Bbb    -0.0100    -5.337    -1.904    -1.780  0.2679  0.8304  0.4885
              Bcc     0.0464    24.761     8.835     8.259  0.4292 -0.5568  0.7111
 
              Baa    -0.1687   -90.021   -32.122   -30.028  0.0000  0.0000  1.0000
     5 H(1)   Bbb    -0.1683   -89.817   -32.049   -29.960  1.0000 -0.0081  0.0000
              Bcc     0.3371   179.837    64.170    59.987  0.0081  1.0000 -0.0000
 
              Baa    -0.0137    -7.284    -2.599    -2.430  0.0899  0.9959 -0.0000
     6 H(1)   Bbb     0.0068     3.633     1.296     1.212  0.0000 -0.0000  1.0000
              Bcc     0.0068     3.652     1.303     1.218  0.9959 -0.0899 -0.0000
 

 ---------------------------------------------------------------------------------

 No NMR shielding tensors so no spin-rotation constants.
 Leave Link  601 at Thu Sep  5 23:03:45 2019, MaxMem=  2684354560 cpu:         3.6
 (Enter /soft/gaussian/09-e.01/g09/l701.exe)
 Compute integral first derivatives.
 ... and contract with generalized density number  0.
 Leave Link  701 at Thu Sep  5 23:03:45 2019, MaxMem=  2684354560 cpu:         2.2
 (Enter /soft/gaussian/09-e.01/g09/l702.exe)
 L702 exits ... SP integral derivatives will be done elsewhere.
 Leave Link  702 at Thu Sep  5 23:03:45 2019, MaxMem=  2684354560 cpu:         0.2
 (Enter /soft/gaussian/09-e.01/g09/l703.exe)
 Compute integral first derivatives, UseDBF=F ICtDFT=           0.
 Integral derivatives from FoFJK, PRISM(SPDF).
 Calling FoFJK, ICntrl=      2127 FMM=F ISym2X=1 I1Cent= 0 IOpClX= 1 NMat=1 NMatS=1 NMatT=0.
 FoFJK:  IHMeth= 1 ICntrl=    2127 DoSepK=F KAlg= 0 I1Cent=   0 FoldK=F
 IRaf=         0 NMat=   1 IRICut=       1 DoRegI=T DoRafI=F ISym2E= 1.
 FoFCou: FMM=F IPFlag=           0 FMFlag=      100000 FMFlg1=         800
         NFxFlg=           0 DoJE=F BraDBF=F KetDBF=F FulRan=T
         wScrn=  0.000000 ICntrl=    2127 IOpCl=  1 I1Cent=           0 NGrid=           0
         NMat0=    1 NMatS0=      1 NMatT0=    0 NMatD0=    1 NMtDS0=    0 NMtDT0=    0
 Petite list used in FoFCou.
 Leave Link  703 at Thu Sep  5 23:03:47 2019, MaxMem=  2684354560 cpu:         3.4
 (Enter /soft/gaussian/09-e.01/g09/l716.exe)
 Dipole        =-1.23239526D-03 3.10961858D-01-2.18333355D-16
 ***** Axes restored to original set *****
 -------------------------------------------------------------------
 Center     Atomic                   Forces (Hartrees/Bohr)
 Number     Number              X              Y              Z
 -------------------------------------------------------------------
      1        6           0.053401432   -0.092493994    0.039854338
      2        1          -0.002149814    0.003723587    0.000988315
      3        1          -0.000188323    0.003989637   -0.002445852
      4        1          -0.003360965    0.002157911   -0.002445852
      5        1           0.014204200   -0.024602397    0.017609411
      6        1          -0.061906530    0.107225255   -0.053560360
 -------------------------------------------------------------------
 Cartesian Forces:  Max     0.107225255 RMS     0.042409425
 -----------------------------------------------------------------------------------------------
                       Internal Coordinate Forces (Hartree/Bohr or radian)
  Cent   Atom   N1       Length/X         N2         Alpha/Y        N3         Beta/Z          J
 -----------------------------------------------------------------------------------------------
      1  C 
      2  H        1   0.000988(     1)
      3  H        1   0.000638(     2)      2   0.004889(     7)
      4  H        1   0.000638(     3)      2   0.004889(     8)      3   0.007764(    12)     0
      5  H        1   0.101932(     4)      2   0.000770(     9)      3  -0.000000(    13)     0
         X        5  -0.000000(     5)      1   0.003550(    10)      2   0.000000(    14)     0
      6  H        5   0.134878(     6)      6   0.003550(    11)      1   0.000000(    15)     0
 -----------------------------------------------------------------------------------------------
 Internal  Forces:  Max     0.134877501 RMS     0.043755188
 Force constants in Cartesian coordinates: 
                1             2             3             4             5 
      1  0.825227D+00
      2  0.904475D-01  0.720787D+00
      3 -0.615639D-02  0.106632D-01  0.699040D+00
      4 -0.719808D-01  0.248364D-02  0.000000D+00  0.572310D-01
      5  0.248364D-02 -0.748487D-01  0.000000D+00  0.263014D-03  0.569273D-01
      6  0.000000D+00  0.000000D+00 -0.345595D+00  0.000000D+00  0.000000D+00
      7 -0.317375D+00 -0.106167D-02  0.844459D-01  0.125683D-01  0.000000D+00
      8 -0.295122D-02 -0.781215D-01 -0.330629D-03  0.000000D+00  0.436532D-03
      9  0.798174D-01 -0.300286D-02 -0.106746D+00  0.355484D-01  0.000000D+00
     10 -0.139673D+00 -0.105548D+00 -0.419366D-01  0.346946D-02  0.525319D-02
     11 -0.103658D+00 -0.255824D+00 -0.732976D-01  0.525319D-02  0.953533D-02
     12 -0.373082D-01 -0.706254D-01 -0.106746D+00 -0.177742D-01 -0.307858D-01
     13 -0.533254D+00 -0.118766D+00 -0.255278D-01 -0.856128D-02 -0.121991D-01
     14 -0.118766D+00 -0.396114D+00  0.442155D-01 -0.121991D-01  0.552508D-02
     15 -0.279436D-01  0.483997D-01 -0.187522D+00 -0.177742D-01  0.307858D-01
     16  0.237056D+00  0.132445D+00 -0.108250D-01  0.727340D-02  0.419930D-02
     17  0.132445D+00  0.841216D-01  0.187495D-01  0.419930D-02  0.242447D-02
     18 -0.840928D-02  0.145653D-01  0.475701D-01  0.000000D+00  0.000000D+00
                6             7             8             9            10 
      6  0.345595D+00
      7  0.000000D+00  0.313555D+00
      8  0.000000D+00  0.876712D-04  0.569273D-01
      9  0.000000D+00 -0.906241D-01  0.247972D-03  0.892715D-01
     10  0.000000D+00 -0.520040D-02 -0.272741D-01 -0.147089D-01  0.121160D+00
     11  0.000000D+00  0.175106D-02  0.953533D-02  0.495276D-02  0.111167D+00
     12  0.000000D+00  0.306526D-02  0.152147D-01  0.866986D-02  0.450973D-01
     13  0.000000D+00 -0.112266D-02  0.343369D-01 -0.317536D-02  0.250924D-01
     14  0.000000D+00  0.622702D-03  0.136468D-01  0.176127D-02  0.192017D-01
     15  0.000000D+00  0.311298D-02 -0.151320D-01  0.880484D-02  0.115482D-01
     16  0.000000D+00 -0.242447D-02 -0.419930D-02 -0.685742D-02 -0.484893D-02
     17  0.000000D+00 -0.139977D-02 -0.242447D-02 -0.395914D-02 -0.279953D-02
     18  0.000000D+00  0.000000D+00  0.000000D+00  0.000000D+00  0.000000D+00
               11            12            13            14            15 
     11  0.249322D+00
     12  0.786068D-01  0.892715D-01
     13 -0.145126D-01  0.623779D-04  0.118785D+01
     14 -0.125683D-01  0.363057D-02  0.298248D+00  0.843465D+00
     15 -0.102619D-01  0.880484D-02  0.785902D-01 -0.136122D+00  0.352423D+00
     16  0.000000D+00  0.685742D-02 -0.670007D+00 -0.187107D+00 -0.475336D-01
     17  0.000000D+00  0.395914D-02 -0.187107D+00 -0.453955D+00  0.823306D-01
     18  0.000000D+00  0.000000D+00 -0.499494D-01  0.865148D-01 -0.182510D+00
               16            17            18 
     16  0.432952D+00
     17  0.546622D-01  0.369833D+00
     18  0.583586D-01 -0.101080D+00  0.134940D+00
 Force constants in internal coordinates: 
                1             2             3             4             5 
      1  0.345595D+00
      2  0.000000D+00  0.345595D+00
      3  0.000000D+00  0.000000D+00  0.345595D+00
      4  0.000000D+00  0.000000D+00  0.000000D+00  0.345595D+00
      5  0.000000D+00  0.000000D+00  0.000000D+00  0.000000D+00  0.000000D+00
      6  0.000000D+00  0.000000D+00  0.000000D+00  0.000000D+00  0.000000D+00
      7  0.000000D+00  0.000000D+00  0.000000D+00  0.000000D+00  0.000000D+00
      8  0.000000D+00  0.000000D+00  0.000000D+00  0.000000D+00  0.000000D+00
      9  0.000000D+00  0.000000D+00  0.000000D+00  0.000000D+00  0.000000D+00
     10  0.000000D+00  0.000000D+00  0.000000D+00  0.000000D+00  0.000000D+00
     11  0.000000D+00  0.000000D+00  0.000000D+00  0.000000D+00  0.000000D+00
     12  0.000000D+00  0.000000D+00  0.000000D+00  0.000000D+00  0.000000D+00
     13  0.000000D+00  0.000000D+00  0.000000D+00  0.000000D+00  0.000000D+00
     14  0.000000D+00  0.000000D+00  0.000000D+00  0.000000D+00  0.000000D+00
     15  0.000000D+00  0.000000D+00  0.000000D+00  0.000000D+00  0.000000D+00
                6             7             8             9            10 
      6  0.391394D+00
      7  0.000000D+00  0.243800D+00
      8  0.000000D+00  0.415497D-01  0.243800D+00
      9  0.000000D+00  0.421965D-01  0.421965D-01  0.242291D+00
     10  0.000000D+00  0.000000D+00  0.000000D+00  0.000000D+00  0.160000D+00
     11  0.000000D+00  0.000000D+00  0.000000D+00  0.000000D+00  0.160000D+00
     12  0.000000D+00 -0.648136D-01 -0.105634D-02  0.644615D-01  0.000000D+00
     13  0.000000D+00  0.637573D-01 -0.637573D-01  0.000000D+00  0.000000D+00
     14  0.000000D+00 -0.211268D-02  0.211268D-02  0.000000D+00  0.000000D+00
     15  0.000000D+00 -0.241481D-01  0.241481D-01  0.000000D+00  0.000000D+00
               11            12            13            14            15 
     11  0.160000D+00
     12  0.000000D+00  0.215561D+00
     13  0.000000D+00 -0.108068D+00  0.216136D+00
     14  0.000000D+00 -0.115000D-02  0.230000D-02  0.690000D-02
     15  0.000000D+00 -0.131446D-01  0.262891D-01  0.788674D-01  0.901458D+00
 Leave Link  716 at Thu Sep  5 23:03:47 2019, MaxMem=  2684354560 cpu:         0.8
 (Enter /soft/gaussian/09-e.01/g09/l103.exe)

 GradGradGradGradGradGradGradGradGradGradGradGradGradGradGradGradGradGrad
 Berny optimization.
 Search for a local minimum.
 Step number   1 out of a maximum of   25
 All quantities printed in internal units (Hartrees-Bohrs-Radians)
 Second derivative matrix not updated -- first step.
 The second derivative matrix:
                          R1        R2        A2        R3        A3
           R1           0.34560
           R2          -0.00000   0.34560
           A2           0.00000   0.00000   0.24380
           R3           0.00000   0.00000  -0.00000   0.34560
           A3          -0.00000  -0.00000   0.04155  -0.00000   0.24380
           D3           0.00000   0.00000  -0.06481  -0.00000  -0.00106
           R4           0.00000  -0.00000  -0.00000   0.00000   0.00000
           A4          -0.00000   0.00000   0.04220   0.00000   0.04220
           D4          -0.00000   0.00000   0.06376  -0.00000  -0.06376
           A6           0.00000  -0.00000  -0.00000   0.00000   0.00000
           D6           0.00000   0.00000  -0.02415  -0.00000   0.02415
           A5           0.00000  -0.00000  -0.00000   0.00000   0.00000
           D5           0.00000  -0.00000  -0.00211  -0.00000   0.00211
           R5           0.00000   0.00000  -0.00000  -0.00000  -0.00000
           R6          -0.00000  -0.00000   0.00000  -0.00000  -0.00000
                          D3        R4        A4        D4        A6
           D3           0.21556
           R4          -0.00000   0.34560
           A4           0.06446   0.00000   0.24229
           D4          -0.10807  -0.00000   0.00000   0.21614
           A6           0.00000  -0.00000   0.00000  -0.00000   0.16000
           D6          -0.01314   0.00000  -0.00000   0.02629   0.00000
           A5          -0.00000  -0.00000   0.00000  -0.00000   0.16000
           D5          -0.00115  -0.00000  -0.00000   0.00230  -0.00000
           R5          -0.00000  -0.00000  -0.00000   0.00000   0.00000
           R6           0.00000  -0.00000   0.00000  -0.00000  -0.00000
                          D6        A5        D5        R5        R6
           D6           0.90146
           A5           0.00000   0.16000
           D5           0.07887  -0.00000   0.00690
           R5           0.00000   0.00000   0.00000  -0.00000
           R6           0.00000  -0.00000  -0.00000   0.00000   0.39139
 ITU=  0
     Eigenvalues ---    0.07436   0.13417   0.16000   0.23378   0.32726
     Eigenvalues ---    0.34560   0.34560   0.34560   0.34560   0.38934
     Eigenvalues ---    0.904151000.000001000.000001000.000001000.00000
 RFO step:  Lambda=-2.84756541D-02 EMin= 7.43553518D-02
 Linear search not attempted -- first point.
 Variable       Old X    -DE/DX   Delta X   Delta X   Delta X     New X
                                 (Linear)    (Quad)   (Total)
    R1        2.06396   0.00099   0.00000   0.00264   0.00264   2.06660
    R2        2.06396   0.00064   0.00000   0.00170   0.00170   2.06567
    A2        1.91063   0.00489   0.00000   0.02447   0.02447   1.93510
    R3        2.06396   0.00064   0.00000   0.00170   0.00170   2.06567
    A3        1.91063   0.00489   0.00000   0.02243   0.02243   1.93306
    D3        2.09440   0.00776   0.00000   0.05307   0.05307   2.14747
    R4        2.06396   0.10193   0.00000   0.27249   0.27249   2.33645
    A4        1.91063   0.00077   0.00000  -0.01710  -0.01710   1.89353
    D4        4.18879  -0.00000   0.00000   0.02290   0.02290   4.21169
    A6        1.48353   0.00355   0.00000   0.01884   0.01884   1.50237
    D6        3.14159   0.00000   0.00000   0.00016   0.00016   3.14175
    A5        1.57080   0.00355   0.00000   0.00000   0.00000   1.57080
    D5        3.14159   0.00000   0.00000   0.00000   0.00000   3.14159
    R5        1.88973  -0.00000   0.00000   0.00000   0.00000   1.88973
    R6        1.39840   0.13488   0.00000   0.00000   0.00000   1.39840
         Item               Value     Threshold  Converged?
 Maximum Force            0.101932     0.000450     NO 
 RMS     Force            0.030915     0.000300     NO 
 Maximum Displacement     0.272494     0.001800     NO 
 RMS     Displacement     0.072735     0.001200     NO 
 Predicted change in Energy=-1.536769D-02
 Lowest energy point so far.  Saving SCF results.
 GradGradGradGradGradGradGradGradGradGradGradGradGradGradGradGradGradGrad

 Leave Link  103 at Thu Sep  5 23:03:48 2019, MaxMem=  2684354560 cpu:         0.9
 (Enter /soft/gaussian/09-e.01/g09/l202.exe)
 ---------------------------------------------------------------------------------------------------
                            Z-MATRIX (ANGSTROMS AND DEGREES)
   CD    Cent   Atom    N1       Length/X        N2       Alpha/Y        N3        Beta/Z          J
 ---------------------------------------------------------------------------------------------------
      1      1  C 
      2      2  H        1   1.093599(     1)
      3      3  H        1   1.093103(     2)      2  110.873(     7)
      4      4  H        1   1.093103(     3)      2  110.756(     8)      3  123.041(    12)      0
      5      5  H        1   1.236399(     4)      2  108.492(     9)      3  241.312(    13)      0
      6         X        5   1.000000(     5)      1   90.000(    10)      2  180.000(    14)      0
      7      6  H        5   0.740000(     6)      6   86.079(    11)      1  180.009(    15)      0
 ---------------------------------------------------------------------------------------------------
                         Z-Matrix orientation:                         
 ---------------------------------------------------------------------
 Center     Atomic      Atomic             Coordinates (Angstroms)
 Number     Number       Type             X           Y           Z
 ---------------------------------------------------------------------
      1          6           0        0.000000    0.000000    0.000000
      2          1           0        0.000000    0.000000    1.093599
      3          1           0        1.021364    0.000000   -0.389474
      4          1           0       -0.557319   -0.856856   -0.387386
      5          1           0       -0.562878    1.028628   -0.392142
      6         -1           0       -0.410626    0.750396   -1.340512
      7          1           0       -0.891376    1.628700   -0.674280
 ---------------------------------------------------------------------
                    Distance matrix (angstroms):
                    1          2          3          4          5
     1  C    0.000000
     2  H    1.093599   0.000000
     3  H    1.093103   1.800747   0.000000
     4  H    1.093103   1.799479   1.796231   0.000000
     5  H    1.236399   1.892705   1.888890   1.885498   0.000000
     6  X    1.590183   2.580040   1.875677   1.874361   1.000000
     7  H    1.975315   2.563710   2.528310   2.524260   0.740000
                    6          7
     6  X    0.000000
     7  H    1.202665   0.000000
 Stoichiometry    CH5(2)
 Framework group  C1[X(CH5)]
 Deg. of freedom    12
 Full point group                 C1      NOp   1
 Omega: Change in point group or standard orientation.

 Old FWG=CS   [SG(C1H3),X(H2)]
 New FWG=C01  [X(C1H5)]
 RotChk:  IX=2 Diff= 1.98D+00
 Largest Abelian subgroup         C1      NOp   1
 Largest concise Abelian subgroup C1      NOp   1
                         Standard orientation:                         
 ---------------------------------------------------------------------
 Center     Atomic      Atomic             Coordinates (Angstroms)
 Number     Number       Type             X           Y           Z
 ---------------------------------------------------------------------
      1          6           0       -0.198844    0.000352    0.000316
      2          1           0       -0.571629    1.017370    0.150870
      3          1           0       -0.527620   -0.658551    0.808169
      4          1           0       -0.521322   -0.391060   -0.968022
      5          1           0        1.037164    0.030940    0.005702
      6          1           0        1.776470   -0.000814    0.001385
 ---------------------------------------------------------------------
 Rotational constants (GHZ):    154.9796367     70.5215624     70.4263140
 Leave Link  202 at Thu Sep  5 23:03:48 2019, MaxMem=  2684354560 cpu:         0.1
 (Enter /soft/gaussian/09-e.01/g09/l301.exe)
 Standard basis: 6-31G(d) (6D, 7F)
 Ernie: Thresh=  0.10000D-02 Tol=  0.10000D-05 Strict=F.
 There are    25 symmetry adapted cartesian basis functions of A   symmetry.
 There are    25 symmetry adapted basis functions of A   symmetry.
    25 basis functions,    48 primitive gaussians,    25 cartesian basis functions
     6 alpha electrons        5 beta electrons
       nuclear repulsion energy        15.9513361651 Hartrees.
 IExCor=  402 DFT=T Ex+Corr=B3LYP ExCW=0 ScaHFX=  0.200000
 ScaDFX=  0.800000  0.720000  1.000000  0.810000 ScalE2=  1.000000  1.000000
 IRadAn=      5 IRanWt=     -1 IRanGd=            0 ICorTp=0 IEmpDi=  4
 NAtoms=    6 NActive=    6 NUniq=    6 SFac= 1.00D+00 NAtFMM=   60 NAOKFM=F Big=F
 Integral buffers will be    131072 words long.
 Raffenetti 2 integral format.
 Two-electron integral symmetry is turned on.
 Leave Link  301 at Thu Sep  5 23:03:48 2019, MaxMem=  2684354560 cpu:         0.5
 (Enter /soft/gaussian/09-e.01/g09/l302.exe)
 NPDir=0 NMtPBC=     1 NCelOv=     1 NCel=       1 NClECP=     1 NCelD=      1
         NCelK=      1 NCelE2=     1 NClLst=     1 CellRange=     0.0.
 One-electron integrals computed using PRISM.
 NBasis=    25 RedAO= T EigKep=  9.24D-03  NBF=    25
 NBsUse=    25 1.00D-06 EigRej= -1.00D+00 NBFU=    25
 Precomputing XC quadrature grid using
 IXCGrd= 4 IRadAn=           5 IRanWt=          -1 IRanGd=           0 AccXCQ= 0.00D+00.
 Generated NRdTot=       0 NPtTot=           0 NUsed=           0 NTot=          32
 NSgBfM=    25    25    25    25    25 MxSgAt=     6 MxSgA2=     6.
 Leave Link  302 at Thu Sep  5 23:03:48 2019, MaxMem=  2684354560 cpu:         1.9
 (Enter /soft/gaussian/09-e.01/g09/l303.exe)
 DipDrv:  MaxL=1.
 Leave Link  303 at Thu Sep  5 23:03:48 2019, MaxMem=  2684354560 cpu:         0.2
 (Enter /soft/gaussian/09-e.01/g09/l401.exe)
 Initial guess from the checkpoint file:  "/blues/gpfs/home/elliott/Packages/PACC/moldriver/rcdriver/tmprundir/RXN/CH3.H2/MDUSDFXREFXETQ/0_0/2_1/UHFFFAOYSA-N/CH4.H/HXBDELFRWIQQII/0_0/1_2/UHFFFAOYSA-N/2/ezvlpJU/SCANS/R6/00/RUN/OPTI/A00/Gau-144232.chk"
 B after Tr=     0.000000    0.000000    0.000000
         Rot=    0.706442   -0.052150    0.053142   -0.703844 Ang= -90.11 deg.
 Guess basis will be translated and rotated to current coordinates.
 JPrj=2 DoOrth=T DoCkMO=T.
 Initial guess <Sx>= 0.0000 <Sy>= 0.0000 <Sz>= 0.5000 <S**2>= 0.7541 S= 0.5020
 Generating alternative initial guess.
 ExpMin= 1.61D-01 ExpMax= 3.05D+03 ExpMxC= 4.57D+02 IAcc=2 IRadAn=         4 AccDes= 0.00D+00
 Harris functional with IExCor=  402 and IRadAn=       4 diagonalized for initial guess.
 HarFok:  IExCor=  402 AccDes= 0.00D+00 IRadAn=         4 IDoV= 1 UseB2=F ITyADJ=14
 ICtDFT=  3500011 ScaDFX=  1.000000  1.000000  1.000000  1.000000
 FoFCou: FMM=F IPFlag=           0 FMFlag=      100000 FMFlg1=           0
         NFxFlg=           0 DoJE=T BraDBF=F KetDBF=T FulRan=T
         wScrn=  0.000000 ICntrl=     500 IOpCl=  0 I1Cent=   200000004 NGrid=           0
         NMat0=    1 NMatS0=      1 NMatT0=    0 NMatD0=    1 NMtDS0=    0 NMtDT0=    0
 Petite list used in FoFCou.
 Harris En= -40.9923937486278    
 Leave Link  401 at Thu Sep  5 23:03:48 2019, MaxMem=  2684354560 cpu:         2.1
 (Enter /soft/gaussian/09-e.01/g09/l502.exe)
 UHF open shell SCF:
 Using DIIS extrapolation, IDIIS=  1040.
 Integral symmetry usage will be decided dynamically.
 Keep R1 and R2 ints in memory in canonical form, NReq=976418.
 IVT=        8268 IEndB=        8268 NGot=  2684354560 MDV=  2684240343
 LenX=  2684240343 LenY=  2684239277
 Requested convergence on RMS density matrix=1.00D-08 within  64 cycles.
 Requested convergence on MAX density matrix=1.00D-06.
 Requested convergence on             energy=1.00D-06.
 No special actions if energy rises.
 FoFCou: FMM=F IPFlag=           0 FMFlag=           0 FMFlg1=           0
         NFxFlg=           0 DoJE=F BraDBF=F KetDBF=F FulRan=T
         wScrn=  0.000000 ICntrl=     600 IOpCl=  0 I1Cent=           0 NGrid=           0
         NMat0=    1 NMatS0=    325 NMatT0=    0 NMatD0=    1 NMtDS0=    0 NMtDT0=    0
 Symmetry not used in FoFCou.
 Integral accuracy reduced to 1.0D-05 until final iterations.

 Cycle   1  Pass 0  IDiag  1:
 E= -40.9765660511079    
 DIIS: error= 1.22D-02 at cycle   1 NSaved=   1.
 NSaved= 1 IEnMin= 1 EnMin= -40.9765660511079     IErMin= 1 ErrMin= 1.22D-02
 ErrMax= 1.22D-02  0.00D+00 EMaxC= 1.00D-01 BMatC= 8.17D-03 BMatP= 8.17D-03
 IDIUse=3 WtCom= 8.78D-01 WtEn= 1.22D-01
 Coeff-Com:  0.100D+01
 Coeff-En:   0.100D+01
 Coeff:      0.100D+01
 Recover alternate guess density for next cycle.
 RMSDP=1.72D-02 MaxDP=2.88D-01              OVMax= 0.00D+00

 Cycle   2  Pass 0  IDiag  1:
 E= -40.9096908082068     Delta-E=        0.066875242901 Rises=F Damp=F
 Switch densities from cycles 1 and 2 for lowest energy.
 DIIS: error= 6.36D-02 at cycle   2 NSaved=   2.
 NSaved= 2 IEnMin= 1 EnMin= -40.9765660511079     IErMin= 1 ErrMin= 1.22D-02
 ErrMax= 6.36D-02  0.00D+00 EMaxC= 1.00D+00 BMatC= 2.53D-01 BMatP= 8.17D-03
 IDIUse=1 WtCom= 1.00D+00 WtEn= 0.00D+00
 Coeff-Com:  0.102D+01-0.157D-01
 Coeff:      0.102D+01-0.157D-01
 Gap=     0.314 Goal=   None    Shift=    0.000
 Gap=     0.351 Goal=   None    Shift=    0.000
 RMSDP=5.11D-02 MaxDP=1.03D+00 DE= 6.69D-02 OVMax= 1.05D-01

 Cycle   3  Pass 0  IDiag  1:
 E= -40.9811920557464     Delta-E=       -0.071501247540 Rises=F Damp=F
 DIIS: error= 5.71D-03 at cycle   3 NSaved=   3.
 NSaved= 3 IEnMin= 3 EnMin= -40.9811920557464     IErMin= 3 ErrMin= 5.71D-03
 ErrMax= 5.71D-03  0.00D+00 EMaxC= 1.00D+00 BMatC= 1.04D-03 BMatP= 8.17D-03
 IDIUse=1 WtCom= 1.00D+00 WtEn= 0.00D+00
 Coeff-Com:  0.743D-03 0.459D-01 0.953D+00
 Coeff:      0.743D-03 0.459D-01 0.953D+00
 Gap=     0.313 Goal=   None    Shift=    0.000
 Gap=     0.349 Goal=   None    Shift=    0.000
 RMSDP=2.58D-03 MaxDP=3.94D-02 DE=-7.15D-02 OVMax= 1.65D-02

 Cycle   4  Pass 0  IDiag  1:
 E= -40.9815734409623     Delta-E=       -0.000381385216 Rises=F Damp=F
 DIIS: error= 9.63D-04 at cycle   4 NSaved=   4.
 NSaved= 4 IEnMin= 4 EnMin= -40.9815734409623     IErMin= 4 ErrMin= 9.63D-04
 ErrMax= 9.63D-04  0.00D+00 EMaxC= 1.00D+00 BMatC= 3.70D-05 BMatP= 1.04D-03
 IDIUse=1 WtCom= 1.00D+00 WtEn= 0.00D+00
 Coeff-Com: -0.316D-01 0.166D-02 0.988D-01 0.931D+00
 Coeff:     -0.316D-01 0.166D-02 0.988D-01 0.931D+00
 Gap=     0.313 Goal=   None    Shift=    0.000
 Gap=     0.349 Goal=   None    Shift=    0.000
 RMSDP=3.96D-04 MaxDP=5.27D-03 DE=-3.81D-04 OVMax= 4.57D-03

 Cycle   5  Pass 0  IDiag  1:
 E= -40.9815961999156     Delta-E=       -0.000022758953 Rises=F Damp=F
 DIIS: error= 2.80D-04 at cycle   5 NSaved=   5.
 NSaved= 5 IEnMin= 5 EnMin= -40.9815961999156     IErMin= 5 ErrMin= 2.80D-04
 ErrMax= 2.80D-04  0.00D+00 EMaxC= 1.00D+00 BMatC= 2.59D-06 BMatP= 3.70D-05
 IDIUse=1 WtCom= 1.00D+00 WtEn= 0.00D+00
 Coeff-Com:  0.697D-02-0.280D-02-0.769D-01-0.126D+00 0.120D+01
 Coeff:      0.697D-02-0.280D-02-0.769D-01-0.126D+00 0.120D+01
 Gap=     0.313 Goal=   None    Shift=    0.000
 Gap=     0.349 Goal=   None    Shift=    0.000
 RMSDP=1.95D-04 MaxDP=2.44D-03 DE=-2.28D-05 OVMax= 1.38D-03

 Cycle   6  Pass 0  IDiag  1:
 E= -40.9815982143683     Delta-E=       -0.000002014453 Rises=F Damp=F
 DIIS: error= 3.36D-05 at cycle   6 NSaved=   6.
 NSaved= 6 IEnMin= 6 EnMin= -40.9815982143683     IErMin= 6 ErrMin= 3.36D-05
 ErrMax= 3.36D-05  0.00D+00 EMaxC= 1.00D+00 BMatC= 9.76D-08 BMatP= 2.59D-06
 IDIUse=1 WtCom= 1.00D+00 WtEn= 0.00D+00
 Coeff-Com:  0.844D-03 0.130D-03-0.436D-02-0.367D-01 0.347D-02 0.104D+01
 Coeff:      0.844D-03 0.130D-03-0.436D-02-0.367D-01 0.347D-02 0.104D+01
 Gap=     0.313 Goal=   None    Shift=    0.000
 Gap=     0.350 Goal=   None    Shift=    0.000
 RMSDP=2.51D-05 MaxDP=2.91D-04 DE=-2.01D-06 OVMax= 1.70D-04

 Cycle   7  Pass 0  IDiag  1:
 E= -40.9815982710366     Delta-E=       -0.000000056668 Rises=F Damp=F
 DIIS: error= 1.02D-05 at cycle   7 NSaved=   7.
 NSaved= 7 IEnMin= 7 EnMin= -40.9815982710366     IErMin= 7 ErrMin= 1.02D-05
 ErrMax= 1.02D-05  0.00D+00 EMaxC= 1.00D+00 BMatC= 9.13D-09 BMatP= 9.76D-08
 IDIUse=1 WtCom= 1.00D+00 WtEn= 0.00D+00
 Coeff-Com: -0.442D-03 0.193D-03 0.636D-02 0.101D-01-0.909D-01 0.847D-01
 Coeff-Com:  0.990D+00
 Coeff:     -0.442D-03 0.193D-03 0.636D-02 0.101D-01-0.909D-01 0.847D-01
 Coeff:      0.990D+00
 Gap=     0.313 Goal=   None    Shift=    0.000
 Gap=     0.350 Goal=   None    Shift=    0.000
 RMSDP=7.20D-06 MaxDP=7.63D-05 DE=-5.67D-08 OVMax= 3.64D-05

 Initial convergence to 1.0D-05 achieved.  Increase integral accuracy.
 Cycle   8  Pass 1  IDiag  1:
 E= -40.9815981791369     Delta-E=        0.000000091900 Rises=F Damp=F
 DIIS: error= 2.14D-06 at cycle   1 NSaved=   1.
 NSaved= 1 IEnMin= 1 EnMin= -40.9815981791369     IErMin= 1 ErrMin= 2.14D-06
 ErrMax= 2.14D-06  0.00D+00 EMaxC= 1.00D+00 BMatC= 4.15D-10 BMatP= 4.15D-10
 IDIUse=1 WtCom= 1.00D+00 WtEn= 0.00D+00
 Coeff-Com:  0.100D+01
 Coeff:      0.100D+01
 Gap=     0.313 Goal=   None    Shift=    0.000
 Gap=     0.350 Goal=   None    Shift=    0.000
 RMSDP=7.20D-06 MaxDP=7.63D-05 DE= 9.19D-08 OVMax= 9.96D-06

 Cycle   9  Pass 1  IDiag  1:
 E= -40.9815981794156     Delta-E=       -0.000000000279 Rises=F Damp=F
 DIIS: error= 1.16D-06 at cycle   2 NSaved=   2.
 NSaved= 2 IEnMin= 2 EnMin= -40.9815981794156     IErMin= 2 ErrMin= 1.16D-06
 ErrMax= 1.16D-06  0.00D+00 EMaxC= 1.00D+00 BMatC= 8.24D-11 BMatP= 4.15D-10
 IDIUse=1 WtCom= 1.00D+00 WtEn= 0.00D+00
 Coeff-Com: -0.252D-01 0.103D+01
 Coeff:     -0.252D-01 0.103D+01
 Gap=     0.313 Goal=   None    Shift=    0.000
 Gap=     0.350 Goal=   None    Shift=    0.000
 RMSDP=5.13D-07 MaxDP=4.92D-06 DE=-2.79D-10 OVMax= 3.48D-06

 Cycle  10  Pass 1  IDiag  1:
 E= -40.9815981794564     Delta-E=       -0.000000000041 Rises=F Damp=F
 DIIS: error= 8.43D-07 at cycle   3 NSaved=   3.
 NSaved= 3 IEnMin= 3 EnMin= -40.9815981794564     IErMin= 3 ErrMin= 8.43D-07
 ErrMax= 8.43D-07  0.00D+00 EMaxC= 1.00D+00 BMatC= 3.39D-11 BMatP= 8.24D-11
 IDIUse=1 WtCom= 1.00D+00 WtEn= 0.00D+00
 Coeff-Com: -0.197D+00 0.401D+00 0.796D+00
 Coeff:     -0.197D+00 0.401D+00 0.796D+00
 Gap=     0.313 Goal=   None    Shift=    0.000
 Gap=     0.350 Goal=   None    Shift=    0.000
 RMSDP=2.25D-07 MaxDP=2.02D-06 DE=-4.08D-11 OVMax= 2.18D-06

 Cycle  11  Pass 1  IDiag  1:
 E= -40.9815981794692     Delta-E=       -0.000000000013 Rises=F Damp=F
 DIIS: error= 3.45D-07 at cycle   4 NSaved=   4.
 NSaved= 4 IEnMin= 4 EnMin= -40.9815981794692     IErMin= 4 ErrMin= 3.45D-07
 ErrMax= 3.45D-07  0.00D+00 EMaxC= 1.00D+00 BMatC= 5.93D-12 BMatP= 3.39D-11
 IDIUse=1 WtCom= 1.00D+00 WtEn= 0.00D+00
 Coeff-Com: -0.964D-01 0.592D-01 0.370D+00 0.667D+00
 Coeff:     -0.964D-01 0.592D-01 0.370D+00 0.667D+00
 Gap=     0.313 Goal=   None    Shift=    0.000
 Gap=     0.350 Goal=   None    Shift=    0.000
 RMSDP=6.19D-08 MaxDP=5.74D-07 DE=-1.28D-11 OVMax= 7.64D-07

 Cycle  12  Pass 1  IDiag  1:
 E= -40.9815981794710     Delta-E=       -0.000000000002 Rises=F Damp=F
 DIIS: error= 4.38D-08 at cycle   5 NSaved=   5.
 NSaved= 5 IEnMin= 5 EnMin= -40.9815981794710     IErMin= 5 ErrMin= 4.38D-08
 ErrMax= 4.38D-08  0.00D+00 EMaxC= 1.00D+00 BMatC= 6.97D-14 BMatP= 5.93D-12
 IDIUse=1 WtCom= 1.00D+00 WtEn= 0.00D+00
 Coeff-Com: -0.155D-02-0.606D-02-0.101D-01 0.589D-01 0.959D+00
 Coeff:     -0.155D-02-0.606D-02-0.101D-01 0.589D-01 0.959D+00
 Gap=     0.313 Goal=   None    Shift=    0.000
 Gap=     0.350 Goal=   None    Shift=    0.000
 RMSDP=1.55D-08 MaxDP=1.74D-07 DE=-1.83D-12 OVMax= 1.05D-07

 Cycle  13  Pass 1  IDiag  1:
 E= -40.9815981794710     Delta-E=       -0.000000000000 Rises=F Damp=F
 DIIS: error= 7.33D-09 at cycle   6 NSaved=   6.
 NSaved= 6 IEnMin= 6 EnMin= -40.9815981794710     IErMin= 6 ErrMin= 7.33D-09
 ErrMax= 7.33D-09  0.00D+00 EMaxC= 1.00D+00 BMatC= 3.40D-15 BMatP= 6.97D-14
 IDIUse=1 WtCom= 1.00D+00 WtEn= 0.00D+00
 Coeff-Com:  0.545D-02-0.186D-02-0.237D-01-0.432D-01-0.289D-01 0.109D+01
 Coeff:      0.545D-02-0.186D-02-0.237D-01-0.432D-01-0.289D-01 0.109D+01
 Gap=     0.313 Goal=   None    Shift=    0.000
 Gap=     0.350 Goal=   None    Shift=    0.000
 RMSDP=4.80D-09 MaxDP=5.65D-08 DE=-4.97D-14 OVMax= 4.93D-08

 SCF Done:  E(UB3LYP) =  -40.9815981795     A.U. after   13 cycles
            NFock= 13  Conv=0.48D-08     -V/T= 2.0047
 <Sx>= 0.0000 <Sy>= 0.0000 <Sz>= 0.5000 <S**2>= 0.7547 S= 0.5024
 <L.S>= 0.000000000000E+00
 KE= 4.079013970381D+01 PE=-1.258945169869D+02 EE= 2.817144293852D+01
 Annihilation of the first spin contaminant:
 S**2 before annihilation     0.7547,   after     0.7500
 Leave Link  502 at Thu Sep  5 23:03:49 2019, MaxMem=  2684354560 cpu:         7.6
 (Enter /soft/gaussian/09-e.01/g09/l508.exe)
 QCSCF skips out because SCF is already converged.
 Leave Link  508 at Thu Sep  5 23:03:49 2019, MaxMem=  2684354560 cpu:         0.0
 (Enter /soft/gaussian/09-e.01/g09/l701.exe)
 Compute integral first derivatives.
 ... and contract with generalized density number  0.
 Leave Link  701 at Thu Sep  5 23:03:49 2019, MaxMem=  2684354560 cpu:         1.7
 (Enter /soft/gaussian/09-e.01/g09/l702.exe)
 L702 exits ... SP integral derivatives will be done elsewhere.
 Leave Link  702 at Thu Sep  5 23:03:49 2019, MaxMem=  2684354560 cpu:         0.2
 (Enter /soft/gaussian/09-e.01/g09/l703.exe)
 Compute integral first derivatives, UseDBF=F ICtDFT=           0.
 Integral derivatives from FoFJK, PRISM(SPDF).
 Calling FoFJK, ICntrl=      2127 FMM=F ISym2X=0 I1Cent= 0 IOpClX= 1 NMat=1 NMatS=1 NMatT=0.
 FoFJK:  IHMeth= 1 ICntrl=    2127 DoSepK=F KAlg= 0 I1Cent=   0 FoldK=F
 IRaf=         0 NMat=   1 IRICut=       1 DoRegI=T DoRafI=F ISym2E= 0.
 FoFCou: FMM=F IPFlag=           0 FMFlag=      100000 FMFlg1=         800
         NFxFlg=           0 DoJE=F BraDBF=F KetDBF=F FulRan=T
         wScrn=  0.000000 ICntrl=    2127 IOpCl=  1 I1Cent=           0 NGrid=           0
         NMat0=    1 NMatS0=      1 NMatT0=    0 NMatD0=    1 NMtDS0=    0 NMtDT0=    0
 Symmetry not used in FoFCou.
 Leave Link  703 at Thu Sep  5 23:03:49 2019, MaxMem=  2684354560 cpu:         2.5
 (Enter /soft/gaussian/09-e.01/g09/l716.exe)
 Dipole        =-2.61975264D-01-3.99568848D-03-1.41183077D-03
 ***** Axes restored to original set *****
 -------------------------------------------------------------------
 Center     Atomic                   Forces (Hartrees/Bohr)
 Number     Number              X              Y              Z
 -------------------------------------------------------------------
      1        6           0.026999384   -0.049981036    0.019826549
      2        1          -0.002121336    0.004118474   -0.000885298
      3        1          -0.001322813    0.004363178   -0.001647574
      4        1          -0.002838410    0.003362840   -0.001699149
      5        1           0.024438973   -0.044330730    0.021292851
      6        1          -0.045155798    0.082467273   -0.036887379
 -------------------------------------------------------------------
 Cartesian Forces:  Max     0.082467273 RMS     0.030645464
 -----------------------------------------------------------------------------------------------
                       Internal Coordinate Forces (Hartree/Bohr or radian)
  Cent   Atom   N1       Length/X         N2         Alpha/Y        N3         Beta/Z          J
 -----------------------------------------------------------------------------------------------
      1  C 
      2  H        1  -0.000885(     1)
      3  H        1  -0.000649(     2)      2   0.004154(     7)
      4  H        1  -0.000587(     3)      2   0.004213(     8)      3   0.008138(    12)     0
      5  H        1   0.046105(     4)      2  -0.000048(     9)      3   0.000283(    13)     0
         X        5  -0.000000(     5)      1   0.002442(    10)      2   0.000001(    14)     0
      6  H        5   0.100983(     6)      6   0.002442(    11)      1   0.000013(    15)     0
 -----------------------------------------------------------------------------------------------
 Internal  Forces:  Max     0.100982807 RMS     0.028795843
 Leave Link  716 at Thu Sep  5 23:03:50 2019, MaxMem=  2684354560 cpu:         0.2
 (Enter /soft/gaussian/09-e.01/g09/l103.exe)

 GradGradGradGradGradGradGradGradGradGradGradGradGradGradGradGradGradGrad
 Berny optimization.
 Search for a local minimum.
 Step number   2 out of a maximum of   25
 All quantities printed in internal units (Hartrees-Bohrs-Radians)
 Update second derivatives using D2CorN and points    1    2
 DE= -1.97D-02 DEPred=-1.54D-02 R= 1.28D+00
 TightC=F SS=  1.41D+00  RLast= 2.82D-01 DXNew= 5.0454D-01 8.4511D-01
 Trust test= 1.28D+00 RLast= 2.82D-01 DXMaxT set to 5.05D-01
 The second derivative matrix:
                          R1        R2        A2        R3        A3
           R1           0.34563
           R2           0.00002   0.34561
           A2           0.00009   0.00007   0.24273
           R3           0.00002   0.00001   0.00006   0.34561
           A3           0.00008   0.00006   0.04051   0.00005   0.24279
           D3           0.00021   0.00016  -0.06699   0.00014  -0.00319
           R4           0.00101   0.00079  -0.01185   0.00068  -0.01155
           A4          -0.00011  -0.00008   0.04250  -0.00007   0.04252
           D4           0.00014   0.00010   0.06332   0.00010  -0.06422
           A6           0.00008   0.00006  -0.00070   0.00005  -0.00069
           D6           0.00000   0.00000  -0.02415   0.00000   0.02414
           A5          -0.00003  -0.00002  -0.00029  -0.00002  -0.00027
           D5          -0.00000  -0.00000  -0.00211  -0.00000   0.00211
           R5           0.00000   0.00000   0.00000  -0.00000  -0.00000
           R6           0.00056   0.00036   0.00523   0.00036   0.00479
                          D3        R4        A4        D4        A6
           D3           0.21113
           R4          -0.02420   0.21392
           A4           0.06503   0.00338   0.24239
           D4          -0.10890  -0.00490  -0.00010   0.21624
           A6          -0.00142  -0.00782   0.00015  -0.00023   0.15955
           D6          -0.01315  -0.00005   0.00000   0.02629  -0.00000
           A5          -0.00064  -0.00327   0.00021  -0.00027   0.15977
           D5          -0.00115  -0.00000   0.00000   0.00230  -0.00000
           R5          -0.00000   0.00000  -0.00000   0.00000   0.00000
           R6           0.01133   0.05819  -0.00365   0.00489   0.00402
                          D6        A5        D5        R5        R6
           D6           0.90146
           A5          -0.00000   0.16000
           D5           0.07887  -0.00000   0.00690
           R5           0.00000   0.00000   0.00000  -0.00000
           R6           0.00003  -0.00000  -0.00000   0.00000   0.39139
 ITU=  1  0
 Linear search step of   0.563 exceeds DXMaxT=   0.505 but not scaled.
 Quartic linear search produced a step of  2.00000.
 Variable       Old X    -DE/DX   Delta X   Delta X   Delta X     New X
                                 (Linear)    (Quad)   (Total)
    R1        2.06660  -0.00089   0.00528   0.00000   0.00528   2.07189
    R2        2.06567  -0.00065   0.00341   0.00000   0.00341   2.06908
    A2        1.93510   0.00415   0.04894   0.00000   0.04894   1.98404
    R3        2.06567  -0.00059   0.00341   0.00000   0.00341   2.06908
    A3        1.93306   0.00421   0.04485   0.00000   0.04485   1.97791
    D3        2.14747   0.00814   0.10615   0.00000   0.10615   2.25362
    R4        2.33645   0.04611   0.54499   0.00000   0.54499   2.88144
    A4        1.89353  -0.00005  -0.03420   0.00000  -0.03420   1.85934
    D4        4.21169   0.00028   0.04580   0.00000   0.04580   4.25749
    A6        1.50237   0.00244   0.03767   0.00000   0.03767   1.54004
    D6        3.14175   0.00001   0.00031   0.00000   0.00031   3.14206
    A5        1.57080   0.00244   0.00000   0.00000   0.00000   1.57080
    D5        3.14159   0.00000   0.00000   0.00000   0.00000   3.14159
    R5        1.88973  -0.00000   0.00000   0.00000   0.00000   1.88973
    R6        1.39840   0.10098   0.00000   0.00000   0.00000   1.39840
         Item               Value     Threshold  Converged?
 Maximum Force            0.046105     0.000450     NO 
 RMS     Force            0.014253     0.000300     NO 
 Maximum Displacement     0.544988     0.001800     NO 
 RMS     Displacement     0.145470     0.001200     NO 
 Predicted change in Energy=-3.990115D-03
 Lowest energy point so far.  Saving SCF results.
 GradGradGradGradGradGradGradGradGradGradGradGradGradGradGradGradGradGrad

 Leave Link  103 at Thu Sep  5 23:03:50 2019, MaxMem=  2684354560 cpu:         0.1
 (Enter /soft/gaussian/09-e.01/g09/l202.exe)
 ---------------------------------------------------------------------------------------------------
                            Z-MATRIX (ANGSTROMS AND DEGREES)
   CD    Cent   Atom    N1       Length/X        N2       Alpha/Y        N3        Beta/Z          J
 ---------------------------------------------------------------------------------------------------
      1      1  C 
      2      2  H        1   1.096395(     1)
      3      3  H        1   1.094907(     2)      2  113.677(     7)
      4      4  H        1   1.094907(     3)      2  113.326(     8)      3  129.123(    12)      0
      5      5  H        1   1.524794(     4)      2  106.532(     9)      3  243.936(    13)      0
      6         X        5   1.000000(     5)      1   90.000(    10)      2  180.000(    14)      0
      7      6  H        5   0.740000(     6)      6   88.238(    11)      1  180.027(    15)      0
 ---------------------------------------------------------------------------------------------------
                         Z-Matrix orientation:                         
 ---------------------------------------------------------------------
 Center     Atomic      Atomic             Coordinates (Angstroms)
 Number     Number       Type             X           Y           Z
 ---------------------------------------------------------------------
      1          6           0        0.000000    0.000000    0.000000
      2          1           0        0.000000    0.000000    1.096395
      3          1           0        1.002741    0.000000   -0.439697
      4          1           0       -0.634402   -0.779999   -0.433541
      5          1           0       -0.642262    1.313103   -0.433885
      6         -1           0       -0.517236    1.057488   -1.392545
      7          1           0       -0.951277    1.944097   -0.666169
 ---------------------------------------------------------------------
                    Distance matrix (angstroms):
                    1          2          3          4          5
     1  C    0.000000
     2  H    1.096395   0.000000
     3  H    1.094907   1.834412   0.000000
     4  H    1.094907   1.830730   1.813470   0.000000
     5  H    1.524794   2.116246   2.104829   2.093117   0.000000
     6  X    1.823457   2.753296   2.082433   2.076000   1.000000
     7  H    2.264558   2.791250   2.765680   2.752313   0.740000
                    6          7
     6  X    0.000000
     7  H    1.225597   0.000000
 Stoichiometry    CH5(2)
 Framework group  C1[X(CH5)]
 Deg. of freedom    12
 Full point group                 C1      NOp   1
 RotChk:  IX=2 Diff= 1.44D-01
 Largest Abelian subgroup         C1      NOp   1
 Largest concise Abelian subgroup C1      NOp   1
                         Standard orientation:                         
 ---------------------------------------------------------------------
 Center     Atomic      Atomic             Coordinates (Angstroms)
 Number     Number       Type             X           Y           Z
 ---------------------------------------------------------------------
      1          6           0       -0.263572    0.002265    0.000865
      2          1           0       -0.585920    1.046617    0.087493
      3          1           0       -0.556886   -0.620504    0.852304
      4          1           0       -0.537892   -0.458364   -0.953803
      5          1           0        1.261145    0.017064    0.004616
      6          1           0        2.000984    0.001596    0.004199
 ---------------------------------------------------------------------
 Rotational constants (GHZ):    150.3732697     56.5667141     56.2683365
 Leave Link  202 at Thu Sep  5 23:03:50 2019, MaxMem=  2684354560 cpu:         0.1
 (Enter /soft/gaussian/09-e.01/g09/l301.exe)
 Standard basis: 6-31G(d) (6D, 7F)
 Ernie: Thresh=  0.10000D-02 Tol=  0.10000D-05 Strict=F.
 There are    25 symmetry adapted cartesian basis functions of A   symmetry.
 There are    25 symmetry adapted basis functions of A   symmetry.
    25 basis functions,    48 primitive gaussians,    25 cartesian basis functions
     6 alpha electrons        5 beta electrons
       nuclear repulsion energy        15.0918653620 Hartrees.
 IExCor=  402 DFT=T Ex+Corr=B3LYP ExCW=0 ScaHFX=  0.200000
 ScaDFX=  0.800000  0.720000  1.000000  0.810000 ScalE2=  1.000000  1.000000
 IRadAn=      5 IRanWt=     -1 IRanGd=            0 ICorTp=0 IEmpDi=  4
 NAtoms=    6 NActive=    6 NUniq=    6 SFac= 1.00D+00 NAtFMM=   60 NAOKFM=F Big=F
 Integral buffers will be    131072 words long.
 Raffenetti 2 integral format.
 Two-electron integral symmetry is turned on.
 Leave Link  301 at Thu Sep  5 23:03:50 2019, MaxMem=  2684354560 cpu:         0.5
 (Enter /soft/gaussian/09-e.01/g09/l302.exe)
 NPDir=0 NMtPBC=     1 NCelOv=     1 NCel=       1 NClECP=     1 NCelD=      1
         NCelK=      1 NCelE2=     1 NClLst=     1 CellRange=     0.0.
 One-electron integrals computed using PRISM.
 NBasis=    25 RedAO= T EigKep=  1.53D-02  NBF=    25
 NBsUse=    25 1.00D-06 EigRej= -1.00D+00 NBFU=    25
 Precomputing XC quadrature grid using
 IXCGrd= 4 IRadAn=           5 IRanWt=          -1 IRanGd=           0 AccXCQ= 0.00D+00.
 Generated NRdTot=       0 NPtTot=           0 NUsed=           0 NTot=          32
 NSgBfM=    25    25    25    25    25 MxSgAt=     6 MxSgA2=     6.
 Leave Link  302 at Thu Sep  5 23:03:50 2019, MaxMem=  2684354560 cpu:         1.7
 (Enter /soft/gaussian/09-e.01/g09/l303.exe)
 DipDrv:  MaxL=1.
 Leave Link  303 at Thu Sep  5 23:03:50 2019, MaxMem=  2684354560 cpu:         0.2
 (Enter /soft/gaussian/09-e.01/g09/l401.exe)
 Initial guess from the checkpoint file:  "/blues/gpfs/home/elliott/Packages/PACC/moldriver/rcdriver/tmprundir/RXN/CH3.H2/MDUSDFXREFXETQ/0_0/2_1/UHFFFAOYSA-N/CH4.H/HXBDELFRWIQQII/0_0/1_2/UHFFFAOYSA-N/2/ezvlpJU/SCANS/R6/00/RUN/OPTI/A00/Gau-144232.chk"
 B after Tr=    -0.000000    0.000000    0.000000
         Rot=    0.999536    0.030365    0.001112    0.002061 Ang=   3.49 deg.
 Guess basis will be translated and rotated to current coordinates.
 JPrj=2 DoOrth=T DoCkMO=T.
 Initial guess <Sx>= 0.0000 <Sy>= 0.0000 <Sz>= 0.5000 <S**2>= 0.7566 S= 0.5033
 Generating alternative initial guess.
 ExpMin= 1.61D-01 ExpMax= 3.05D+03 ExpMxC= 4.57D+02 IAcc=2 IRadAn=         4 AccDes= 0.00D+00
 Harris functional with IExCor=  402 and IRadAn=       4 diagonalized for initial guess.
 HarFok:  IExCor=  402 AccDes= 0.00D+00 IRadAn=         4 IDoV= 1 UseB2=F ITyADJ=14
 ICtDFT=  3500011 ScaDFX=  1.000000  1.000000  1.000000  1.000000
 FoFCou: FMM=F IPFlag=           0 FMFlag=      100000 FMFlg1=           0
         NFxFlg=           0 DoJE=T BraDBF=F KetDBF=T FulRan=T
         wScrn=  0.000000 ICntrl=     500 IOpCl=  0 I1Cent=   200000004 NGrid=           0
         NMat0=    1 NMatS0=      1 NMatT0=    0 NMatD0=    1 NMtDS0=    0 NMtDT0=    0
 Petite list used in FoFCou.
 Harris En= -41.0016411242689    
 Leave Link  401 at Thu Sep  5 23:03:50 2019, MaxMem=  2684354560 cpu:         2.1
 (Enter /soft/gaussian/09-e.01/g09/l502.exe)
 UHF open shell SCF:
 Using DIIS extrapolation, IDIIS=  1040.
 Integral symmetry usage will be decided dynamically.
 Keep R1 and R2 ints in memory in canonical form, NReq=976418.
 IVT=        8268 IEndB=        8268 NGot=  2684354560 MDV=  2684240343
 LenX=  2684240343 LenY=  2684239277
 Requested convergence on RMS density matrix=1.00D-08 within  64 cycles.
 Requested convergence on MAX density matrix=1.00D-06.
 Requested convergence on             energy=1.00D-06.
 No special actions if energy rises.
 FoFCou: FMM=F IPFlag=           0 FMFlag=           0 FMFlg1=           0
         NFxFlg=           0 DoJE=F BraDBF=F KetDBF=F FulRan=T
         wScrn=  0.000000 ICntrl=     600 IOpCl=  0 I1Cent=           0 NGrid=           0
         NMat0=    1 NMatS0=    325 NMatT0=    0 NMatD0=    1 NMtDS0=    0 NMtDT0=    0
 Symmetry not used in FoFCou.
 Integral accuracy reduced to 1.0D-05 until final iterations.

 Cycle   1  Pass 0  IDiag  1:
 E= -40.9830872487610    
 DIIS: error= 2.05D-02 at cycle   1 NSaved=   1.
[...]
 Leave Link  716 at Thu Sep  5 23:04:24 2019, MaxMem=  2684354560 cpu:         0.2
 (Enter /soft/gaussian/09-e.01/g09/l103.exe)

 GradGradGradGradGradGradGradGradGradGradGradGradGradGradGradGradGradGrad
 Berny optimization.
 Search for a local minimum.
 Step number  24 out of a maximum of   25
 All quantities printed in internal units (Hartrees-Bohrs-Radians)
 Update second derivatives using D2CorN and points    9   11   15   18   20
                                                         21   22   23   24
 DE= -1.25D-06 DEPred=-1.09D-06 R= 1.15D+00
 TightC=F SS=  1.41D+00  RLast= 7.99D-03 DXNew= 5.5978D-01 2.3962D-02
 Trust test= 1.15D+00 RLast= 7.99D-03 DXMaxT set to 3.33D-01
 The second derivative matrix:
                          R1        R2        A2        R3        A3
           R1           0.35028
           R2           0.00068   0.34526
           A2           0.01007  -0.00611   0.26159
           R3           0.00012  -0.00033  -0.00571   0.34504
           A3           0.01188  -0.00737   0.05629  -0.00495   0.24162
           D3           0.00552   0.00978  -0.03757   0.00995   0.02350
           R4          -0.00263  -0.00422   0.00117  -0.00465   0.00700
           A4          -0.00236   0.00072   0.02941   0.00101   0.02632
           D4          -0.00151   0.00174   0.07146   0.00214  -0.05694
           A6           0.00202   0.00011   0.00077   0.00231  -0.01546
           D6           0.00003   0.00008  -0.02397   0.00001   0.02468
           A5           0.00084   0.00169  -0.02171   0.00329  -0.03673
           D5           0.00000   0.00000  -0.00208  -0.00000   0.00216
           R5           0.00000   0.00000  -0.00000   0.00000  -0.00000
           R6          -0.00575  -0.00296  -0.00439  -0.00295  -0.00255
                          D3        R4        A4        D4        A6
           D3           0.16243
           R4          -0.03109   0.01564
           A4           0.06706   0.00310   0.22997
           D4          -0.12199   0.00108   0.00195   0.21698
           A6          -0.00606  -0.00701  -0.04985   0.00736   0.01579
           D6          -0.01318  -0.00016   0.00037   0.02616   0.00145
           A5           0.00701  -0.01218  -0.02864   0.00688   0.01809
           D5          -0.00117  -0.00001   0.00003   0.00228   0.00013
           R5          -0.00000   0.00000  -0.00000   0.00000  -0.00000
           R6          -0.00609   0.00571   0.00366  -0.00369  -0.00160
                          D6        A5        D5        R5        R6
           D6           0.90145
           A5           0.00059   0.16000
           D5           0.07887  -0.00000   0.00690
           R5           0.00000   0.00000   0.00000  -0.00000
           R6          -0.00003  -0.00000  -0.00000   0.00000   0.39139
 ITU=  1  1  1  1  0  0 -1  0  0 -1  0  0  1  0  1  1
     Eigenvalues ---    0.00125   0.00222   0.05796   0.13733   0.22985
     Eigenvalues ---    0.32129   0.34525   0.34631   0.35825   0.38222
     Eigenvalues ---    0.904151000.000001000.000001000.000001000.00000
 RFO step:  Lambda=-9.59226776D-08 EMin= 1.25247705D-03
 Quartic linear search produced a step of  0.10438.
 Variable       Old X    -DE/DX   Delta X   Delta X   Delta X     New X
                                 (Linear)    (Quad)   (Total)
    R1        2.04617  -0.00001  -0.00002  -0.00000  -0.00002   2.04614
    R2        2.04606   0.00002   0.00003   0.00003   0.00007   2.04612
    A2        2.09485  -0.00007   0.00001  -0.00045  -0.00044   2.09441
    R3        2.04621  -0.00001   0.00001  -0.00003  -0.00003   2.04618
    A3        2.09327   0.00008   0.00031   0.00018   0.00049   2.09376
    D3        3.09628  -0.00005  -0.00008   0.00030   0.00022   3.09650
    R4        5.47165   0.00002   0.00009   0.00135   0.00144   5.47309
    A4        1.58473  -0.00000   0.00015  -0.00045  -0.00030   1.58443
    D4        4.68616   0.00001   0.00001   0.00044   0.00045   4.68661
    A6        1.57560  -0.00001   0.00075  -0.00164  -0.00089   1.57471
    D6        3.14214   0.00000  -0.00001  -0.00002  -0.00003   3.14211
    A5        1.57080  -0.00001   0.00000   0.00000   0.00000   1.57080
    D5        3.14159  -0.00000   0.00000   0.00000   0.00000   3.14159
    R5        1.88973  -0.00000   0.00000   0.00000   0.00000   1.88973
    R6        1.39840   0.00305   0.00000   0.00000   0.00000   1.39840
         Item               Value     Threshold  Converged?
 Maximum Force            0.000085     0.000450     YES
 RMS     Force            0.000037     0.000300     YES
 Maximum Displacement     0.001440     0.001800     YES
 RMS     Displacement     0.000493     0.001200     YES
 Predicted change in Energy=-4.976961D-08
 Optimization completed.
    -- Stationary point found.
                       ----------------------------
                       !   Optimized Parameters   !
                       ! (Angstroms and Degrees)  !
 ----------------------                            ----------------------
 !      Name          Value   Derivative information (Atomic Units)     !
 ------------------------------------------------------------------------
 !       R1          1.0828   -DE/DX =    0.0                           !
 !       R2          1.0827   -DE/DX =    0.0                           !
 !       A2        120.026    -DE/DX =   -0.0001                        !
 !       R3          1.0828   -DE/DX =    0.0                           !
 !       A3        119.9358   -DE/DX =    0.0001                        !
 !       D3        177.4037   -DE/DX =    0.0                           !
 !       R4          2.8955   -DE/DX =    0.0                           !
 !       A4         90.7985   -DE/DX =    0.0                           !
 !       D4        268.4973   -DE/DX =    0.0                           !
 !       A6         90.2753   -DE/DX =    0.0                           !
 !       D6        180.0316   -DE/DX =    0.0                           !
 !       A5         90.0      -DE/DX =    0.0                           !
 !       D5        180.0      -DE/DX =    0.0                           !
 !       R5          1.0      -DE/DX =    0.0                           !
 !       R6          0.74     -DE/DX =    0.003                         !
 ------------------------------------------------------------------------
 Lowest energy point so far.  Saving SCF results.
 GradGradGradGradGradGradGradGradGradGradGradGradGradGradGradGradGradGrad

 Largest change from initial coordinates is atom    6       3.471 Angstoms.
 Leave Link  103 at Thu Sep  5 23:04:24 2019, MaxMem=  2684354560 cpu:         0.1
 (Enter /soft/gaussian/09-e.01/g09/l202.exe)
 ---------------------------------------------------------------------------------------------------
                            Z-MATRIX (ANGSTROMS AND DEGREES)
   CD    Cent   Atom    N1       Length/X        N2       Alpha/Y        N3        Beta/Z          J
 ---------------------------------------------------------------------------------------------------
      1      1  C 
      2      2  H        1   1.082785(     1)
      3      3  H        1   1.082726(     2)      2  120.026(     7)
      4      4  H        1   1.082806(     3)      2  119.936(     8)      3  177.404(    12)      0
      5      5  H        1   2.895473(     4)      2   90.798(     9)      3  268.497(    13)      0
      6         X        5   1.000000(     5)      1   90.000(    10)      2  180.000(    14)      0
      7      6  H        5   0.740000(     6)      6   90.275(    11)      1  180.032(    15)      0
 ---------------------------------------------------------------------------------------------------
                         Z-Matrix orientation:                         
 ---------------------------------------------------------------------
 Center     Atomic      Atomic             Coordinates (Angstroms)
 Number     Number       Type             X           Y           Z
 ---------------------------------------------------------------------
      1          6           0        0.000000    0.000000    0.000000
      2          1           0        0.000000    0.000000    1.082785
      3          1           0        0.937422    0.000000   -0.541788
      4          1           0       -0.937381   -0.042505   -0.540352
      5          1           0       -0.075924    2.894196   -0.040350
      6         -1           0       -0.075559    2.880265   -1.040253
      7          1           0       -0.095738    3.633900   -0.047108
 ---------------------------------------------------------------------
                    Distance matrix (angstroms):
                    1          2          3          4          5
     1  C    0.000000
     2  H    1.082785   0.000000
     3  H    1.082726   1.875633   0.000000
     4  H    1.082806   1.874850   1.875285   0.000000
     5  H    2.895473   3.105409   3.107198   3.101019   0.000000
     6  X    3.063293   3.578956   3.093626   3.087916   1.000000
     7  H    3.635466   3.806711   3.810165   3.803631   0.740000
                    6          7
     6  X    0.000000
     7  H    1.246880   0.000000
 Stoichiometry    CH5(2)
 Framework group  C1[X(CH5)]
 Deg. of freedom    12
 Full point group                 C1      NOp   1
 RotChk:  IX=1 Diff= 2.36D-16
 Largest Abelian subgroup         C1      NOp   1
 Largest concise Abelian subgroup C1      NOp   1
                         Standard orientation:                         
 ---------------------------------------------------------------------
 Center     Atomic      Atomic             Coordinates (Angstroms)
 Number     Number       Type             X           Y           Z
 ---------------------------------------------------------------------
      1          6           0       -0.589858    0.000095   -0.000070
      2          1           0       -0.604319    0.747639    0.783123
      3          1           0       -0.607604   -1.052051    0.254821
      4          1           0       -0.600148    0.305539   -1.038852
      5          1           0        2.305614   -0.001960   -0.000433
      6          1           0        3.045607    0.000265    0.001764
 ---------------------------------------------------------------------
 Rotational constants (GHZ):    142.5980003     24.0294946     24.0275348
 Leave Link  202 at Thu Sep  5 23:04:25 2019, MaxMem=  2684354560 cpu:         0.1
 (Enter /soft/gaussian/09-e.01/g09/l601.exe)
 Copying SCF densities to generalized density rwf, IOpCl= 1 IROHF=0.

 **********************************************************************

            Population analysis using the SCF density.

 **********************************************************************

 Orbital symmetries:
 Alpha Orbitals:
       Occupied  (A) (A) (A) (A) (A) (A)
       Virtual   (A) (A) (A) (A) (A) (A) (A) (A) (A) (A) (A) (A)
                 (A) (A) (A) (A) (A) (A) (A)
 Beta  Orbitals:
       Occupied  (A) (A) (A) (A) (A)
       Virtual   (A) (A) (A) (A) (A) (A) (A) (A) (A) (A) (A) (A)
                 (A) (A) (A) (A) (A) (A) (A) (A)
 The electronic state is 2-A.
 Alpha  occ. eigenvalues --  -10.19524  -0.68442  -0.42841  -0.41946  -0.41930
 Alpha  occ. eigenvalues --   -0.22734
 Alpha virt. eigenvalues --    0.10437   0.12255   0.17991   0.17999   0.51884
 Alpha virt. eigenvalues --    0.54211   0.54230   0.60595   0.74960   0.91150
 Alpha virt. eigenvalues --    0.91173   0.96068   1.20280   1.64680   1.64686
 Alpha virt. eigenvalues --    2.00923   2.18332   2.18390   4.08269
  Beta  occ. eigenvalues --  -10.18125  -0.64414  -0.42727  -0.40993  -0.40977
  Beta virt. eigenvalues --   -0.05576   0.11442   0.13587   0.18538   0.18546
  Beta virt. eigenvalues --    0.55026   0.55046   0.55167   0.65050   0.77160
  Beta virt. eigenvalues --    0.91634   0.91656   0.98828   1.20587   1.71754
  Beta virt. eigenvalues --    1.71761   2.09477   2.19450   2.19507   4.11998
          Condensed to atoms (all electrons):
               1          2          3          4          5          6
     1  C    5.338563   0.380493   0.380511   0.380474   0.009890  -0.003126
     2  H    0.380493   0.512881  -0.029495  -0.029570   0.000052   0.000014
     3  H    0.380511  -0.029495   0.512794  -0.029530   0.000053   0.000014
     4  H    0.380474  -0.029570  -0.029530   0.512964   0.000056   0.000013
     5  H    0.009890   0.000052   0.000053   0.000056   0.589174   0.394432
     6  H   -0.003126   0.000014   0.000014   0.000013   0.394432   0.625061
          Atomic-Atomic Spin Densities.
               1          2          3          4          5          6
     1  C    1.161971  -0.008915  -0.008914  -0.008916   0.008832  -0.003380
     2  H   -0.008915  -0.044054   0.000916   0.000919  -0.000014   0.000002
     3  H   -0.008914   0.000916  -0.044054   0.000918  -0.000014   0.000002
     4  H   -0.008916   0.000919   0.000918  -0.044053  -0.000014   0.000002
     5  H    0.008832  -0.000014  -0.000014  -0.000014  -0.002657  -0.007668
     6  H   -0.003380   0.000002   0.000002   0.000002  -0.007668   0.025341
 Mulliken charges and spin densities:
               1          2
     1  C   -0.486805   1.140676
     2  H    0.165624  -0.051146
     3  H    0.165653  -0.051147
     4  H    0.165593  -0.051144
     5  H    0.006343  -0.001537
     6  H   -0.016408   0.014298
 Sum of Mulliken charges =  -0.00000   1.00000
 Mulliken charges and spin densities with hydrogens summed into heavy atoms:
               1          2
     1  C   -0.000000   1.000000
 Electronic spatial extent (au):  <R**2>=             97.2612
 Charge=             -0.0000 electrons
 Dipole moment (field-independent basis, Debye):
    X=             -0.2115    Y=              0.0002    Z=             -0.0003  Tot=              0.2115
 Quadrupole moment (field-independent basis, Debye-Ang):
   XX=            -10.5636   YY=             -8.9957   ZZ=             -8.9987
   XY=              0.0053   XZ=             -0.0039   YZ=             -0.0000
 Traceless Quadrupole moment (field-independent basis, Debye-Ang):
   XX=             -1.0443   YY=              0.5237   ZZ=              0.5206
   XY=              0.0053   XZ=             -0.0039   YZ=             -0.0000
 Octapole moment (field-independent basis, Debye-Ang**2):
  XXX=              0.8464  YYY=             -0.6122  ZZZ=             -0.5329  XYY=             -1.3138
  XXY=              0.0006  XXZ=              0.0110  XZZ=             -1.3055  YZZ=              0.6143
  YYZ=              0.5312  XYZ=             -0.0004
 Hexadecapole moment (field-independent basis, Debye-Ang**3):
 XXXX=           -103.9375 YYYY=            -15.7140 ZZZZ=            -15.7134 XXXY=              0.0321
 XXXZ=              0.0148 YYYX=              0.3847 YYYZ=              0.0010 ZZZX=              0.3143
 ZZZY=             -0.0010 XXYY=            -21.8577 XXZZ=            -21.8660 YYZZ=             -5.2376
 XXYZ=              0.0005 YYXZ=             -0.3278 ZZXY=             -0.3712
 N-N= 1.325701067109D+01 E-N=-1.204819260487D+02  KE= 4.058289374158D+01
                          Isotropic Fermi Contact Couplings
        Atom                 a.u.       MegaHertz       Gauss      10(-4) cm-1
     1  C(13)              0.10886     122.38491      43.66998      40.82321
     2  H(1)              -0.01571     -70.21206     -25.05341     -23.42022
     3  H(1)              -0.01571     -70.21996     -25.05623     -23.42286
     4  H(1)              -0.01571     -70.20488     -25.05085     -23.41783
     5  H(1)              -0.00066      -2.94774      -1.05183      -0.98326
     6  H(1)               0.00452      20.21030       7.21154       6.74143
 --------------------------------------------------------
       Center         ----  Spin Dipole Couplings  ----
                      3XX-RR        3YY-RR        3ZZ-RR
 --------------------------------------------------------
     1   Atom        1.085257     -0.542653     -0.542604
     2   Atom       -0.005494     -0.000751      0.006245
     3   Atom       -0.005482      0.069534     -0.064052
     4   Atom       -0.005499     -0.060419      0.065918
     5   Atom        0.020500     -0.010250     -0.010250
     6   Atom        0.007195     -0.003598     -0.003598
 --------------------------------------------------------
                        XY            XZ            YZ
 --------------------------------------------------------
     1   Atom       -0.004370      0.004814     -0.000012
     2   Atom       -0.001038     -0.000702      0.075041
     3   Atom        0.001469     -0.000202     -0.034382
     4   Atom       -0.000365      0.000828     -0.040665
     5   Atom        0.000008      0.000001      0.000000
     6   Atom        0.000003      0.000001     -0.000000
 --------------------------------------------------------


 ---------------------------------------------------------------------------------
              Anisotropic Spin Dipole Couplings in Principal Axis System
 ---------------------------------------------------------------------------------

       Atom             a.u.   MegaHertz   Gauss  10(-4) cm-1        Axes

              Baa    -0.5427   -72.820   -25.984   -24.290  0.0028  0.9997 -0.0238
     1 C(13)  Bbb    -0.5426   -72.814   -25.982   -24.288 -0.0029  0.0238  0.9997
              Bcc     1.0853   145.635    51.966    48.578  1.0000 -0.0027  0.0030
 
              Baa    -0.0724   -38.617   -13.779   -12.881  0.0040  0.7234 -0.6904
     2 H(1)   Bbb    -0.0055    -2.940    -1.049    -0.981  0.9999  0.0073  0.0134
              Bcc     0.0779    41.557    14.828    13.862 -0.0147  0.6904  0.7233
 
              Baa    -0.0724   -38.620   -13.780   -12.882 -0.0022  0.2355  0.9719
     3 H(1)   Bbb    -0.0055    -2.939    -1.049    -0.980  0.9998 -0.0167  0.0063
              Bcc     0.0779    41.558    14.829    13.862  0.0177  0.9717 -0.2354
 
              Baa    -0.0724   -38.617   -13.779   -12.881  0.0017  0.9594  0.2821
     4 H(1)   Bbb    -0.0055    -2.939    -1.049    -0.980  0.9999  0.0014 -0.0108
              Bcc     0.0779    41.556    14.828    13.862  0.0108 -0.2821  0.9593
 
              Baa    -0.0103    -5.469    -1.951    -1.824  0.0000 -0.2493  0.9684
     5 H(1)   Bbb    -0.0102    -5.469    -1.951    -1.824 -0.0003  0.9684  0.2493
              Bcc     0.0205    10.938     3.903     3.648  1.0000  0.0003  0.0000
 
              Baa    -0.0036    -1.920    -0.685    -0.640 -0.0001  0.0148  0.9999
     6 H(1)   Bbb    -0.0036    -1.920    -0.685    -0.640 -0.0003  0.9999 -0.0148
              Bcc     0.0072     3.839     1.370     1.281  1.0000  0.0003  0.0001
 

 ---------------------------------------------------------------------------------

 No NMR shielding tensors so no spin-rotation constants.
 Leave Link  601 at Thu Sep  5 23:04:25 2019, MaxMem=  2684354560 cpu:         3.0
 (Enter /soft/gaussian/09-e.01/g09/l9999.exe)
 1\1\GINC-B442\POpt\UB3LYP\6-31G(d)\C1H5(2)\ELLIOTT\05-Sep-2019\1\\#P b
 3lyp/6-31g* # SCF=(xqc) # POpt=() # int=ultrafine\\comment:\\0,2\C\H,1
 ,R1\H,1,R2,2,A2\H,1,R3,2,A3,3,D3,0\H,1,R4,2,A4,3,D4,0\X,5,R5,1,A5,2,D5
 ,0\H,5,R6,6,A6,1,D6,0\\R1=1.08278453\R2=1.08272572\A2=120.02600863\R3=
 1.08280639\A3=119.93577437\D3=177.40371862\R4=2.89547267\A4=90.7984836
 7\D4=268.49728613\A6=90.27527939\D6=180.03162394\A5=90.\D5=180.\R5=1.\
 R6=0.74\\Version=ES64L-G09RevE.01\State=2-A\HF=-41.014471\S2=0.753705\
 S2-1=0.\S2A=0.750007\RMSD=1.963e-09\RMSF=1.013e-03\Dipole=0.002074,-0.
 0831741,0.0010851\Quadrupole=0.3877042,-0.7756204,0.3879163,0.0261684,
 -0.001504,0.0161217\PG=C01 [X(C1H5)]\\@


 SEEN ON A WALL AT THE UNIVERSITY OF ILLINOIS AT CHICAGO CIRCLE:

 TO DO IS TO BE  -- SOCRATES
 TO BE IS TO DO  -- SARTRE
 OO BE DO BE DO  -- SINATRA
 Job cpu time:       0 days  0 hours  6 minutes 18.2 seconds.
 File lengths (MBytes):  RWF=     77 Int=      0 D2E=      0 Chk=      2 Scr=      2
 Normal termination of Gaussian 09 at Thu Sep  5 23:04:25 2019.
