[Molden Format]
[Molpro variables]
_NUMVAR=  700.0000000000000    
_EV2006= 0.3674930886769165E-01
_EV= 0.3674932534394180E-01
_KJOULE= 0.3808798324128737E-03
_KJOULE/MOL= 0.3808798324128737E-03
_CM= 0.4556335267302901E-05
_CM-1= 0.4556335267302901E-05
_KCAL= 0.1593601117815568E-02
_KCAL/MOL= 0.1593601117815568E-02
_KELVIN2006= 0.3166828861084835E-05
_KELVIN= 0.3166814820820034E-05
_HERTZ2006= 0.1519829850815779E-15
_HERTZ= 0.1519829846011223E-15
_HZ2006= 0.1519829850815779E-15
_HZ= 0.1519829846011223E-15
_TOA2006= 0.5291772490000000    
_TOA= 0.5291772090000000    
_TOANG2006= 0.5291772490000000    
_TOANG= 0.5291772090000000    
_TORAD= 0.1745329251994330E-01
_TOCM=  219474.6306700000    
_TODEBYE=  2.541580000000000    
_TOEV2006=  27.21139610000000    
_TOEV=  27.21138390000000    
_TOHERTZ2006=  6579683899900000.    
_TOHERTZ=  6579683920700000.    
_TOHZ2006=  6579683899900000.    
_TOHZ=  6579683920700000.    
_TOK2006=  315773.3000000000    
_TOK=  315774.7000000000    
_TOKCAL=  627.5096000000000    
_TOKELVIN2006=  315773.3000000000    
_TOKELVIN=  315774.7000000000    
_TOKJ=  2625.500000000000    
_TOKJOULE=  2625.500000000000    
_ANG2006=  1.889725988578923    
_ANG=  1.889726131421507    
_ANGSTROM2006=  1.889725988578923    
_ANGSTROM=  1.889726131421507    
_IGNORE_UNDEF=  2.000000000000000    
_STRICTCHECK=  0.000000000000000    
_SEW_ONEEL=  0.000000000000000    
_CPPDONE=FALSE
_DKROLL_DONE=  0.000000000000000    
_FOCKDONE=  0.000000000000000    
_GRADONE=FALSE
_HESSDONE=TRUE
_INTDONE=TRUE
_SCFDONE=FALSE
_MODUL_CUDA=FALSE
_MODUL_SLATER=FALSE
_MODUL_MRCC=FALSE
_MRCC_EXEC=
_FITC_AO_SAVED=FALSE
_FITC_MO_SAVED=FALSE
_SHARED_FS=TRUE
_LSTYP=SEWARD
_INTYP=INTS
_GEOMTYP=ZMAT
_GRADTYP=ALASKA
_DIRECT=FALSE
_SYNCM=  0.000000000000000    
_BASIS=CC-PVDZ
_ZORIENT=  1.000000000000000    
_NELEC=  10.00000000000000    
_SPIN=  0.000000000000000    
!SPIN=  0.000000000000000    
_OPTCONV= 0.1768186907670127E-03
_QSDSTEP=  0.000000000000000    
_QSDIRC=  0.000000000000000    
_PROGRAM=FREQ
_CPUSTEP=  0.000000000000000    
_SYSSTEP=  0.000000000000000    
_WALLSTEP= 0.2100000000000000    
!DFMP2=  0.000000000000000    
!DFSCF=  0.000000000000000    
!SCSGRD=  0.000000000000000    
_BASINP=  610.0000000000000    
_CPUTOT=  49.96000000000000    
_DFTEXFAC=  1.000000000000000    
_DMX= 0.3410937142468636E-06
_DMY= 0.3109307924799587E-06
_DMZ= 0.3487624389702488    
_FREQUENCIES= -1062.654982758114    
_EMP2= -40.23550346672398    
_ENERGR= -40.09821128783297    
_ENERGU= -40.26360918298421    
_ENERGY= -40.23550346672398    
_ENUC=  11.71167287360815    
_FREQSTEP=  31.00000000000000    
!RS2GRSTATE=  1.000000000000000    
!RS2GRSYM=  1.000000000000000    
_GRADENERG= -40.23503872780961    
_GRADEXFAC=  9999.000000000000    
_GRADMETHOD=TRUE
_GRADRECORD=  5200.100000000000    
_VIRIAL= 0.1841637198604137    
!GRID_FREEZE= -1.000000000000000    
_ITERATIONS=  0.000000000000000    
_LASTNELEC=  2.000000000000000    
_LASTSPIN=  0.000000000000000    
_LASTSYM=  1.000000000000000    
_MPP_PROG=  1.000000000000000    
_MSENERGY= -40.23550346672398    
_NPROC_MPP=  4.000000000000000    
_NPROC_SMP=  1.000000000000000    
_NUMSTEP=  0.000000000000000    
_OPTCONVMX= 0.8804020164440155E-04
_OPTCONVRMS= 0.2210233634587659E-04
_OPTGRAD= 0.5760191453482686E-04
_OPTGRADMX= 0.3462988793405356E-04
_OPTGRADRMS= 0.7200239316853357E-05
_OPTSTEP=  6.000000000000000    
_ORBITAL=  2142.200000000000    
_PI=  3.141592653589793    
!MCACT=  2.000000000000000    
!MCCLOSED=  4.000000000000000    
!MCFREEZE=  0.000000000000000    
!MCMS2=  0.000000000000000    
!MCNEL=  2.000000000000000    
!MCNSTSYM=  1.000000000000000    
!MCSTATE=  1.000000000000000    
!MCSYM=  1.000000000000000    
!MCWEIGHT=  1.000000000000000    
_SEIG_MIN= 0.1442228379239903E-01
_SEWPROP=TRUE
_STATUS=  1.000000000000000    
_SYSTOT=  3.030000000000000    
_VERSION=  2010001.000000000    
_WALLTOT=  288.8200000000000    
_ZPE= 0.3454977963732684E-01
_DATE=30-Aug-19
_LASTORB=MCSCF
_MACHINE=Linux-2.6.34-12-desktop/tt106(x86_64) 64 bit mpp version
_OUTPUT=/home/carlo/qm/combustion/test_diss/newalg/ch4_ch3_h_vrc_test1/dist_2.1/molpro.xml
_PGROUP=C1
_TIME=07:27:42
_LIBMOL=/programs/molpro2010p/bin/../lib/
!SURFREC=  0.000000000000000    
!POLYREC=  0.000000000000000    
!DIPREC=  0.000000000000000    
!VSCFREC=  0.000000000000000    
!VCIREC=  0.000000000000000    
!PVCIREC=  0.000000000000000    
!VMP2REC=  0.000000000000000    
!VMCSCFREC=  0.000000000000000    
!GAREC=  0.000000000000000    
!SCFORB=  21002.00000000000    
!MCORB=  21422.00000000000    
!CIOCC=  6.000000000000000    
!CICORE=  1.000000000000000    
!CICLOS=  4.000000000000000    
!CIISTSYM=  1.000000000000000    
!CIISTMS2=  0.000000000000000    
!CIISTNEL=  8.000000000000000    
!NEWMOL=  0.000000000000000    
!NEWSYM=  0.000000000000000    
_SLFILES=slscratch
_NGSSTO=  9.000000000000000    
_SIN=SIN
_COS=COS
_TAN=TAN
_ACOS=ACOS
_ASIN=ASIN
_ATAN=ATAN
_COSH=COSH
_SINH=SINH
_TANH=TANH
_ABS=ABS
_MOD=MOD
_ERF=ERF
_REFC=REFC
_ERFC=ERFC
_HYPOT=HYPOT
_J0=J0
_J1=J1
_JN=JN
_GAMMA=GAMMA
_LGAMMA=LGAMMA
_Y0=Y0
_Y1=Y1
_YN=YN
_EXP=EXP
_LOG=LOG
_LOG10=LOG10
_SQRT=SQRT
_INT=INT
_NINT=NINT
_MAX=MAX
_MIN=MIN
_COSMO=  0.000000000000000    
_COSMOIT=  0.000000000000000    
_COSMOES=  0.000000000000000    
_COSMOEDS=  0.000000000000000    
_COSMOEC=  0.000000000000000    
_COSMOEDCORR=  0.000000000000000    
_FEPSI=  1.000000000000000    
_SL_IsMM=  0.000000000000000    
_SL_NSYM=  0.000000000000000    
_SL_System_BitSw=  0.000000000000000    
_SL_Unique_atoms=  0.000000000000000    
_SL_GRAD=  0.000000000000000    
_SL_MAXUPD_Hess=  5.000000000000000    
_SL_N_PRINT_COD=  5.000000000000000    
_SL_PRINT_CODES=  0.000000000000000    
_SL_BasType=  0.000000000000000    
_SL_Energy_Pred=  0.000000000000000    
_SL_New_Coords=  0.000000000000000    
_SL_Total_Nuclea=  0.000000000000000    
_SL_Highest_Mltp=  0.000000000000000    
_SL_Ref_Geom=  0.000000000000000    
!LATTICE= -1.000000000000000    
!NEWLATTICE=  0.000000000000000    
!LATGRAD_VAR=FALSE
!SEW_LATTICE=  1.000000000000000    
!LOCAL=  0.000000000000000    
!SAVEDOM= -1.000000000000000    
!RESTDOM= -1.000000000000000    
!SAVEDOM_HF= -1.000000000000000    
!RESTDOM_HF= -1.000000000000000    
!HESSREC=  5300.200000000000    
!FREQREC=  5400.200000000000    
!NMODREC=  5450.200000000000    
!GTASKS=  0.000000000000000    
!HTASKS=  5500.200000000000    
!THRCHG= 0.1000000000000000    
!DEBUG= -1.000000000000000    
!CFIT_CPHF=  0.000000000000000    
!RDOMAUX_CPHF=  3.000000000000000    
!THRAO_CPHF= 0.1000000000000000E-09
!THRMO_CPHF= 0.1000000000000000E-09
!THROV_CPHF= 0.1000000000000000E-11
!THRSW_CPHF= 0.1000000000000000E-09
!THRPROD_CPHF= 0.1000000000000000E-09
!THRAOPR_CPHF= 0.1000000000000000E-11
!CFIT_SCFGRD=  0.000000000000000    
!RDOMAUX_SCFGRD=  5.000000000000000    
!THRAO_SCFGRD= 0.1000000000000000E-09
!THRMO_SCFGRD= 0.1000000000000000E-09
!THROV_SCFGRD= 0.1000000000000000E-11
!THRSW_SCFGRD= 0.1000000000000000E-09
!THRPROD_SCFGRD= 0.1000000000000000E-09
!THRAOPR_SCFGRD= 0.1000000000000000E-11
!LOCFIT_SCF=  0.000000000000000    
!LOCFIT_MP2= -1.000000000000000    
_RIDOM=  0.000000000000000    
!CC2_METHOD=  0.000000000000000    
_BASIS2006=FALSE
_SVDDEL= -1.000000000000000    
_SVDDELA= -1.000000000000000    
_SVDDELP= -1.000000000000000    
_SVDDELF= -1.000000000000000    
_SVDDELS= -1.000000000000000    
_SVDDEL_ABS= -1.000000000000000    
_SVDDELA_ABS= -1.000000000000000    
_SVDDELP_ABS= -1.000000000000000    
_SVDDELF_ABS= -1.000000000000000    
_SVDDELS_ABS= -1.000000000000000    
_MAXBASIS=  0.000000000000000    
!OPT_CONICAL=  0.000000000000000    
!CLEARSP_JGRID=  0.000000000000000    
RCH1=  1.092449218674093    
RCH2=  1.092450787474960    
RCH3=  1.092450361104338    
AHCC1=  117.5161923337454    
AHCC2=  117.5162522308657    
AHCC3=  99.15853595691758    
B1=  149.1746692364699    
B2= -105.4125998184744    
RCH4=  2.100000000000000    
GX1=-0.3083529053343748E-06
GY1= 0.3739626257964757E-08
GZ1= 0.1873957739343907    
GX2= -1.952061593057438    
GY2= 0.5859663708958442    
GZ2= 0.5159847332372935    
GX3=  1.483494545193505    
GY3=  1.397554440372131    
GZ3= 0.5159797106219757    
GX4= 0.4685721819510701    
GY4= -1.983519246888151    
GZ4= 0.5159846725510246    
GX5=-0.1459635537104376E-05
GY5=-0.1608942645836553E-05
GZ5= -3.781029102050279    
C1X1=-0.3083529053343748E-06
C1Y1= 0.3739626257964757E-08
C1Z1= 0.1873957739343907    
H2X2= -1.952061593057438    
H2Y2= 0.5859663708958442    
H2Z2= 0.5159847332372935    
H3X3=  1.483494545193505    
H3Y3=  1.397554440372131    
H3Z3= 0.5159797106219757    
H4X4= 0.4685721819510701    
H4Y4= -1.983519246888151    
H4Z4= 0.5159846725510246    
H5X5=-0.1459635537104376E-05
H5Y5=-0.1608942645836553E-05
H5Z5= -3.781029102050279    
CBSEN= -40.23550346672398    
[Atoms] Angs
C     1    6        -0.0000001632        0.0000000020        0.0991655726
H     2    1        -1.0329865056        0.3100800487        0.2730473610
H     3    1         0.7850315030        0.7395539582        0.2730447032
H     4    1         0.2479577195       -1.0496331791        0.2730473289
H     5    1        -0.0000007724       -0.0000008514       -2.0008344274
[GTO]
  1 0
 s    9  1.00
  0.6665000000D+04  0.6920001793D-03
  0.1000000000D+04  0.5329001381D-02
  0.2280000000D+03  0.2707700701D-01
  0.6471000000D+02  0.1017180264D+00
  0.2106000000D+02  0.2747400712D+00
  0.7495000000D+01  0.4485641162D+00
  0.2797000000D+01  0.2850740738D+00
  0.5215000000D+00  0.1520400394D-01
  0.1596000000D+00 -0.3191000827D-02
 s    9  1.00
  0.6665000000D+04 -0.1460000642D-03
  0.1000000000D+04 -0.1154000508D-02
  0.2280000000D+03 -0.5725002519D-02
  0.6471000000D+02 -0.2331201026D-01
  0.2106000000D+02 -0.6395502813D-01
  0.7495000000D+01 -0.1499810660D+00
  0.2797000000D+01 -0.1272620560D+00
  0.5215000000D+00  0.5445292395D+00
  0.1596000000D+00  0.5804962554D+00
 s    9  1.00
  0.6665000000D+04  0.0000000000D+00
  0.1000000000D+04  0.0000000000D+00
  0.2280000000D+03  0.0000000000D+00
  0.6471000000D+02  0.0000000000D+00
  0.2106000000D+02  0.0000000000D+00
  0.7495000000D+01  0.0000000000D+00
  0.2797000000D+01  0.0000000000D+00
  0.5215000000D+00  0.0000000000D+00
  0.1596000000D+00  0.1000000000D+01
 p    4  1.00
  0.9439000000D+01  0.3810902127D-01
  0.2002000000D+01  0.2094801169D+00
  0.5456000000D+00  0.5085572839D+00
  0.1517000000D+00  0.4688422617D+00
 p    4  1.00
  0.9439000000D+01  0.0000000000D+00
  0.2002000000D+01  0.0000000000D+00
  0.5456000000D+00  0.0000000000D+00
  0.1517000000D+00  0.1000000000D+01
 d    1  1.00
  0.5500000000D+00  0.1000000000D+01
  
  2 0
 s    4  1.00
  0.1301000000D+02  0.1968498999D-01
  0.1962000000D+01  0.1379769298D+00
  0.4446000000D+00  0.4781477569D+00
  0.1220000000D+00  0.5012397451D+00
 s    4  1.00
  0.1301000000D+02  0.0000000000D+00
  0.1962000000D+01  0.0000000000D+00
  0.4446000000D+00  0.0000000000D+00
  0.1220000000D+00  0.1000000000D+01
 p    1  1.00
  0.7270000000D+00  0.1000000000D+01
  
  3 0
 s    4  1.00
  0.1301000000D+02  0.1968498999D-01
  0.1962000000D+01  0.1379769298D+00
  0.4446000000D+00  0.4781477569D+00
  0.1220000000D+00  0.5012397451D+00
 s    4  1.00
  0.1301000000D+02  0.0000000000D+00
  0.1962000000D+01  0.0000000000D+00
  0.4446000000D+00  0.0000000000D+00
  0.1220000000D+00  0.1000000000D+01
 p    1  1.00
  0.7270000000D+00  0.1000000000D+01
  
  4 0
 s    4  1.00
  0.1301000000D+02  0.1968498999D-01
  0.1962000000D+01  0.1379769298D+00
  0.4446000000D+00  0.4781477569D+00
  0.1220000000D+00  0.5012397451D+00
 s    4  1.00
  0.1301000000D+02  0.0000000000D+00
  0.1962000000D+01  0.0000000000D+00
  0.4446000000D+00  0.0000000000D+00
  0.1220000000D+00  0.1000000000D+01
 p    1  1.00
  0.7270000000D+00  0.1000000000D+01
  
  5 0
 s    4  1.00
  0.1301000000D+02  0.1968498999D-01
  0.1962000000D+01  0.1379769298D+00
  0.4446000000D+00  0.4781477569D+00
  0.1220000000D+00  0.5012397451D+00
 s    4  1.00
  0.1301000000D+02  0.0000000000D+00
  0.1962000000D+01  0.0000000000D+00
  0.4446000000D+00  0.0000000000D+00
  0.1220000000D+00  0.1000000000D+01
 p    1  1.00
  0.7270000000D+00  0.1000000000D+01
 
 
[MO]
 Sym=      1.1
 Ene=     -11.2656
 Spin= Alpha
 Occup=    2.000000
1 1.00132111612184
2 0.007362644734056
3 -0.008050187808640
4 -0.000000001524106
5 0.000000000505919
6 0.000411187284324
7 0.000000001111037
8 -0.000000000743218
9 0.000100130415277
10 0.000352730610088
11 0.000352727822766
12 -0.000705458432853
13 -0.000000002692835
14 -0.000000001604976
15 -0.000000001220114
16 -0.000326930337558
17 0.001393337888508
18 -0.000416836202627
19 0.000125124808289
20 0.000110477541959
21 -0.000326922705463
22 0.001393329736451
23 0.000316779561644
24 0.000298428992605
25 0.000110475907059
26 -0.000326926189879
27 0.001393332305836
28 0.000100056378747
29 -0.000423553775414
30 0.000110477241582
31 0.000012868189579
32 0.000289728245475
33 0.000000000043673
34 0.000000000074645
35 0.000326180042510
 Sym=      2.1
 Ene=      -0.9109
 Spin= Alpha
 Occup=    2.000000
1 -0.024173243839624
2 0.76103204356484
3 -0.14988229017069
4 -0.000000336043983
5 0.000000134925085
6 0.086657645681674
7 0.000000183881076
8 -0.000000040106572
9 -0.016152337906064
10 0.001949950617034
11 0.001949917729184
12 -0.003899868346217
13 -0.000000020600854
14 -0.000000018616697
15 -0.000000006745759
16 0.34898912177799
17 -0.14598063143485
18 0.026720226984279
19 -0.008020829393792
20 -0.002107275021464
21 0.34898788260232
22 -0.14598004778922
23 -0.020306324252160
24 -0.019129945452515
25 -0.002107188069666
26 0.34898820996299
27 -0.14598021046096
28 -0.006413910445402
29 0.027150763137670
30 -0.002107262475298
31 0.011811736997460
32 -0.011061992814446
33 -0.000000000656376
34 0.000000001921591
35 0.002760624722152
 Sym=      3.1
 Ene=      -0.5761
 Spin= Alpha
 Occup=    2.000000
1 0.000000008797613
2 0.000000258967041
3 0.000000272124557
4 0.57431981675244
5 -0.30095721374671
6 -0.000000357296892
7 -0.10583942687412
8 0.055462364938180
9 0.000000120211914
10 -0.018937439787829
11 0.018937463976104
12 -0.000000024188275
13 0.009044308635972
14 0.009839578065949
15 -0.005156198192440
16 -0.62072885887286
17 0.17787621591822
18 -0.021265126280611
19 0.003894337688863
20 0.004461042353929
21 0.20638795549785
22 -0.059142513918739
23 0.002936279565076
24 -0.013535631212809
25 -0.001483240042200
26 0.41434149308034
27 -0.11873370905823
28 0.005930333899141
29 0.016138416250185
30 -0.002977783801708
31 0.000000037044644
32 -0.000000036493813
33 0.001357519913715
34 -0.000711371429697
35 0.000000003768858
 Sym=      4.1
 Ene=      -0.5761
 Spin= Alpha
 Occup=    2.000000
1 -0.000000003848189
2 -0.000000064925636
3 -0.000000133609522
4 -0.30095713524951
5 -0.57431957946354
6 0.000000959370762
7 0.055462150102069
8 0.10583897615599
9 -0.000000211705278
10 -0.007832603941664
11 0.007832569547160
12 0.000000034394504
13 -0.021867127812287
14 -0.005156125322755
15 -0.009839535788782
16 0.12006188804652
17 -0.034404922745118
18 0.000437063546547
19 -0.012999490412140
20 -0.000862841768693
21 -0.59759803550517
22 0.17124747965598
23 0.017867040820930
24 0.011201953236294
25 0.004294734871413
26 0.47753583459958
27 -0.13684253937710
28 -0.011807023586107
29 0.014195997598276
30 -0.003431923422894
31 -0.000000058014226
32 0.000000041697588
33 -0.000711374900152
34 -0.001357521559028
35 -0.000000007199643
 Sym=      5.1
 Ene=      -0.3138
 Spin= Alpha
 Occup=    1.752184
1 0.003288090847300
2 -0.063357703867628
3 -0.042238006604235
4 0.000000679394069
5 0.000000619931130
6 0.53307136545588
7 0.000000083374362
8 0.000000039022930
9 0.045853442559475
10 0.008742105269728
11 0.008742100437380
12 -0.017484205707107
13 -0.000000001364527
14 -0.000000027110876
15 -0.000000017619252
16 0.068237875157334
17 -0.012473868831689
18 0.002125171512624
19 -0.000637910930807
20 0.011207212644821
21 0.068237926851474
22 -0.012473765864165
23 -0.001615022178375
24 -0.001521464086812
25 0.011207198421291
26 0.068237854882432
27 -0.012473808690029
28 -0.000510104078076
29 0.002159413331171
30 0.011207197587323
31 -0.62221948582587
32 -0.036620944683893
33 0.000000000087844
34 -0.000000002348898
35 -0.005260327242644
 Sym=      6.1
 Ene=       0.0767
 Spin= Alpha
 Occup=    0.247816
1 0.000763150060702
2 -0.18959496046191
3 -0.077942310549570
4 0.000000803123754
5 0.000000766220889
6 0.74867823413963
7 0.000000096503985
8 0.000000060700909
9 0.056590235959044
10 0.009575791190757
11 0.009575785828705
12 -0.019151577019462
13 -0.000000006526491
14 -0.000000054096834
15 -0.000000032803817
16 0.037432342729777
17 -0.010613147737723
18 -0.000218741251770
19 0.000065679351259
20 0.013636536495094
21 0.037432076154107
22 -0.010613077757030
23 0.000166272457750
24 0.000156639055408
25 0.013636506959934
26 0.037432286755945
27 -0.010613102244893
28 0.000052526250838
29 -0.000222271195492
30 0.013636513464579
31 0.93550254625111
32 -0.12456738592086
33 -0.000000001098445
34 -0.000000000637478
35 -0.006591640792646
 Sym=      7.1
 Ene=       0.1992
 Spin= Alpha
 Occup=    0.000000
1 0.084095339356036
2 -0.18769180769179
3 -2.07025701787531
4 -0.000000957445945
5 -0.000000086100173
6 -0.13309497880971
7 -0.000001613687987
8 -0.000000224121355
9 -0.17619361511998
10 -0.009686617130746
11 -0.009686573717518
12 0.019373190848264
13 0.000000042016400
14 0.000000038203854
15 0.000000039777614
16 0.062890750416364
17 1.01144768879670
18 0.014945119041351
19 -0.004486196499523
20 -0.005875249404132
21 0.062891076273610
22 1.01144919539533
23 -0.011357733683086
24 -0.010699760787024
25 -0.005875176247715
26 0.062890979072237
27 1.01144898145606
28 -0.003587422577931
29 0.015185947754676
30 -0.005875227280211
31 -0.10308721788644
32 -0.004718611708625
33 0.000000003675292
34 0.000000006558580
35 0.002296658397986
 Sym=      8.1
 Ene=       0.2646
 Spin= Alpha
 Occup=    0.000000
1 0.000000012010303
2 -0.000000116582743
3 -0.000001404363643
4 0.16468436884750
5 0.42649384233662
6 -0.000000702448170
7 0.43330086282619
8 1.12214835398719
9 -0.000001967560114
10 0.008967289825802
11 -0.008967267188979
12 -0.000000022636823
13 0.018670536312434
14 0.005352603754967
15 0.013862080991406
16 0.003287080044034
17 0.16274785919980
18 0.003063976476782
19 0.003054377798894
20 -0.000153380533261
21 -0.038598295027662
22 -1.91111310123035
23 0.016446280287797
24 0.017759315124738
25 0.001800996207228
26 0.035311197973484
27 1.74836692773680
28 -0.002979809339941
29 0.021996278776838
30 -0.001647681097098
31 0.000000080826172
32 -0.000000223908940
33 -0.000631551130415
34 -0.001635552387089
35 -0.000000007363611
 Sym=      9.1
 Ene=       0.2646
 Spin= Alpha
 Occup=    0.000000
1 0.000000085971192
2 -0.000000148107376
3 -0.000004709032473
4 0.42649356165980
5 -0.16468419083852
6 -0.000000500666364
7 1.12214990905993
8 -0.43330195229015
9 -0.000001293213504
10 -0.016169250328885
11 0.016169203834374
12 0.000000046494511
13 0.010354586096337
14 0.013862145741358
15 -0.005352699144936
16 0.042670695334872
17 2.11280766797452
18 0.025485727893352
19 -0.007956374985649
20 -0.001991142189584
21 -0.018489063679974
22 -0.91545676257079
23 0.010780564787190
24 0.005426009486016
25 0.000862704744816
26 -0.024181943384912
27 -1.19734507186084
28 0.006543683048588
29 -0.014000072394778
30 0.001128382020074
31 -0.000000069552703
32 -0.000000258168431
33 -0.001635564723207
34 0.000631542822345
35 0.000000003585252
 Sym=     10.1
 Ene=       0.5995
 Spin= Alpha
 Occup=    0.000000
1 0.000000219750976
2 0.000000444661644
3 -0.000002599614366
4 -0.26097527292799
5 -0.36041145616833
6 0.000001232200721
7 0.93536952088852
8 1.29176093404674
9 -0.000004738167710
10 -0.025512500348074
11 0.025512604386343
12 -0.000000104038270
13 -0.11627434657906
14 -0.019231403331257
15 -0.026559052513567
16 0.43498269293519
17 -0.16983224399710
18 0.015812929762780
19 0.056817108169431
20 0.003144911349624
21 -1.29924772972805
22 0.50727503048602
23 -0.010608999763661
24 0.006079452170641
25 -0.009393628688937
26 0.86426945174502
27 -0.33744351993383
28 0.046542223183001
29 0.008565775675699
30 0.006248695993185
31 0.000003217108618
32 -0.000004750415734
33 0.030537562785882
34 0.042172936112681
35 -0.000000011438100
 Sym=     11.1
 Ene=       0.5995
 Spin= Alpha
 Occup=    0.000000
1 -0.000000293584701
2 -0.000000904347015
3 0.000003694009605
4 0.36041195246463
5 -0.26097542245426
6 -0.000000656281577
7 -1.29176657709602
8 0.93537158896541
9 0.000002050924387
10 -0.10069630440478
11 0.10069625030601
12 0.000000054098774
13 0.029459208654875
14 0.026559265015594
15 -0.019231752262981
16 -1.24910725173566
17 0.48769078647841
18 0.009175646262744
19 0.018684333059927
20 -0.009031238351376
21 0.24784756662975
22 -0.096767402072231
23 -0.041562442292955
24 0.045106637532930
25 0.001791965107848
26 1.00125728077721
27 -0.39092448693749
28 -0.039075863897291
29 -0.012044644909146
30 0.007239260534417
31 -0.000000989864128
32 0.000001565217993
33 -0.042173028944902
34 0.030537638778786
35 0.000000029354608
 Sym=     12.1
 Ene=       0.6434
 Spin= Alpha
 Occup=    0.000000
1 0.052413721018893
2 0.34289430583984
3 -0.26289544840571
4 -0.000000661008004
5 -0.000000890698295
6 -0.47159500741830
7 0.000002823885572
8 0.000002902920132
9 1.07860830346947
10 -0.022840414925424
11 -0.022840531694610
12 0.045680946620034
13 -0.000000390727380
14 -0.000000015186512
15 0.000000070597028
16 -0.33028396101889
17 0.10519326804996
18 0.029376608289827
19 -0.008818081528051
20 -0.037315491642143
21 -0.33028982365060
22 0.10519751332669
23 -0.022325248987771
24 -0.021032001028024
25 -0.037315468084942
26 -0.33028558853720
27 0.10519558923978
28 -0.007051380495488
29 0.029850092227202
30 -0.037315427999243
31 -1.70731762839000
32 2.31105659048675
33 0.000000113162652
34 0.000000065412322
35 -0.019895728660596
 Sym=     13.1
 Ene=       0.7159
 Spin= Alpha
 Occup=    0.000000
1 -0.12302421261059
2 -0.24466668991330
3 0.82090007466750
4 -0.000000115190737
5 -0.000000994271293
6 -0.59360275816328
7 0.000000123816805
8 0.000001727277395
9 0.72812232727210
10 -0.11533087696860
11 -0.11533112747694
12 0.23066200444554
13 -0.000000012961123
14 0.000000311310885
15 0.000000383824589
16 -0.90638168780053
17 0.63941003059318
18 0.067467395761299
19 -0.020252217225980
20 0.003142043450486
21 -0.90638532986163
22 0.63941534689323
23 -0.051272595014014
24 -0.048302415384181
25 0.003142406368338
26 -0.90638420947242
27 0.63941452391578
28 -0.016194770972913
29 0.068554682593773
30 0.003142157769188
31 1.01389691932991
32 -1.18215549814392
33 0.000000094130333
34 0.000000060191274
35 0.10823938131029
 Sym=     14.1
 Ene=       0.8245
 Spin= Alpha
 Occup=    0.000000
1 0.063396897873652
2 0.45633766783864
3 -0.85406324822575
4 0.000007173983996
5 0.000001279621185
6 1.26967703146299
7 -0.000011358243367
8 -0.000001139417904
9 -1.55811406716400
10 -0.084273840277269
11 -0.084274889567446
12 0.16854872984472
13 -0.000000841568991
14 0.000000038625440
15 0.000000328277288
16 -0.56686588526144
17 0.70391185852313
18 0.11697638109555
19 -0.035113494584259
20 0.019803801165233
21 -0.56687256416582
22 0.70392741135567
23 -0.088898501941191
24 -0.083748799032049
25 0.019803506648407
26 -0.56686974602031
27 0.70392242777525
28 -0.028078740451001
29 0.11886244219563
30 0.019803363838107
31 -0.51451925234256
32 0.13887887929930
33 -0.000000087137879
34 0.000000031233116
35 0.087084697525076
 Sym=     15.1
 Ene=       0.8805
 Spin= Alpha
 Occup=    0.000000
1 -0.000000091802730
2 0.000000138226644
3 -0.000001177154374
4 -0.54125483921216
5 -1.13000211579748
6 0.000004163242673
7 0.99012921062708
8 2.06713743371640
9 -0.000006142215678
10 0.11622220868426
11 -0.11622244955148
12 0.000000240867220
13 0.29404462192358
14 0.038535249973353
15 0.080452590137237
16 -0.095101495082604
17 0.31023812563317
18 0.020126644243698
19 -0.081762294686522
20 -0.008001263360894
21 0.57437710751455
22 -1.87373613267988
23 0.20621536226828
24 0.15793985683621
25 0.048325199245107
26 -0.47927891903113
27 1.56350193367700
28 -0.094417627285836
29 0.19924695352542
30 -0.040324387453563
31 -0.000001887910670
32 0.000001168585404
33 0.013458715737753
34 0.028098425674769
35 0.000000195008173
 Sym=     16.1
 Ene=       0.8805
 Spin= Alpha
 Occup=    0.000000
1 -0.000000542334406
2 -0.000001225266707
3 -0.000000149703833
4 -1.13000114791639
5 0.54125439533582
6 0.000005059328030
7 2.06713713245085
8 -0.99012916595676
9 -0.000006497165354
10 -0.25465073185945
11 0.25464964081309
12 0.000001091046354
13 0.13420234836497
14 0.080453338195087
15 -0.038536387943740
16 -0.60833135677082
17 1.98449443390082
18 0.26537946329231
19 -0.067823668819788
20 -0.051182357242118
21 0.22180229915031
22 -0.72356998822950
23 0.025675934222995
24 0.11826561437015
25 0.018661608839687
26 0.38652126418591
27 -1.26091630670067
28 -0.015630361204399
29 -0.18236662136430
30 0.032520715247357
31 -0.000002556677383
32 0.000001012325241
33 0.028098421674588
34 -0.013458770287796
35 0.000000623043668
 Sym=     17.1
 Ene=       1.0693
 Spin= Alpha
 Occup=    0.000000
1 0.74812448244577
2 3.41511622080806
3 -5.61750850058046
4 -0.000000091927894
5 0.000000088564155
6 -0.16491234647048
7 0.000000840898762
8 -0.000000752158188
9 -0.047790217432857
10 0.013363428254676
11 0.013364430569333
12 -0.026727858824009
13 0.000000741377565
14 0.000000298478810
15 0.000000019768383
16 0.10950910505171
17 0.81108293070844
18 0.14937813601048
19 -0.044840121458744
20 -0.050222360902776
21 0.10950967097131
22 0.81107847548469
23 -0.11352137110344
24 -0.10694487722888
25 -0.050221521826276
26 0.10950950252856
27 0.81107923365189
28 -0.035856659560768
29 0.15178473949385
30 -0.050222110149687
31 0.47670170946102
32 -0.34101132167083
33 0.000000006831195
34 -0.000000017952801
35 -0.21728727703987
 Sym=     18.1
 Ene=       1.1882
 Spin= Alpha
 Occup=    0.000000
1 -0.000000081105619
2 -0.000000326741908
3 0.000000380235114
4 -0.051733111228157
5 0.040692159933929
6 0.000000573956878
7 -0.018468433863135
8 0.014526698875697
9 -0.000000591909467
10 0.14839581621357
11 -0.14839573702662
12 -0.000000079186955
13 -0.036227984590018
14 0.46647228699139
15 -0.36691672010099
16 -0.089488564379569
17 0.051537313644415
18 -0.046948288659758
19 -0.044681323553387
20 -0.34623310292851
21 0.014249000774234
22 -0.008206097402382
23 0.10053135795458
24 -0.11417178005626
25 0.055129592859404
26 0.075239559226175
27 -0.043331278456003
28 0.086972941321369
29 0.048294930822134
30 0.29110409273371
31 -0.000000210343811
32 0.000000135499015
33 -0.10088723810019
34 0.079355633009285
35 0.000000000267178
 Sym=     19.1
 Ene=       1.1882
 Spin= Alpha
 Occup=    0.000000
1 0.000000337292576
2 0.000001416222698
3 -0.000002362166735
4 0.040692122398715
5 0.051733170867868
6 -0.000000405700004
7 0.014526666241930
8 0.018467981770517
9 0.000000264332136
10 0.031373531599632
11 -0.031375018402322
12 0.000001486802689
13 0.17135040836216
14 -0.36691731628416
15 -0.46647296389875
16 0.035213151502636
17 -0.020279262465920
18 -0.029024354985391
19 -0.14065143764590
20 0.13623999204286
21 -0.095105185542458
22 0.054772424243416
23 0.040465736785872
24 0.006827029547714
25 -0.36796741590347
26 0.059892749693501
27 -0.034492628850601
28 -0.12199944862265
29 -0.006731298293664
30 0.23172710337722
31 0.000000119383227
32 -0.000000123377120
33 0.079355773403461
34 0.10088733983594
35 0.000000336811683
 Sym=     20.1
 Ene=       1.5344
 Spin= Alpha
 Occup=    0.000000
1 0.000000768639658
2 0.000003198467601
3 -0.000005565030142
4 -0.13139782008450
5 0.099057528652161
6 -0.000000627904521
7 -0.027459723651424
8 0.020701069246886
9 0.000000302249500
10 0.13319541519851
11 -0.13319667215351
12 0.000001256955003
13 -0.035830430416682
14 -0.053432997974457
15 0.040281871370547
16 -0.32039683542264
17 0.17609204630575
18 0.079470154034282
19 -0.093551246764784
20 0.18854732169270
21 0.057542779922608
22 -0.031625065551034
23 0.14349703962005
24 -0.12534177933779
25 -0.033861587159906
26 0.26285806571108
27 -0.14446745616738
28 0.13901586356090
29 -0.053997065852176
30 -0.15468509567855
31 -0.000000089017318
32 0.000000365993548
33 -0.71382735478631
34 0.53813657368631
35 0.000000689129945
 Sym=     21.1
 Ene=       1.5344
 Spin= Alpha
 Occup=    0.000000
1 0.000001125162383
2 0.000004594805415
3 -0.000008259962782
4 -0.099057330976886
5 -0.13139754851492
6 -0.000000604140773
7 -0.020700959115157
8 -0.027459230994580
9 0.000000284755022
10 -0.031030934646270
11 0.031029155461993
12 0.000001779184278
13 -0.15380177345449
14 -0.040281544161280
15 -0.053432748882676
16 -0.11853669022373
17 0.065149149393738
18 0.088375834369677
19 0.16185191850955
20 0.069757559747497
21 0.33674335666975
22 -0.18507473583701
23 0.056584488542789
24 0.097824171340392
25 -0.19816479548469
26 -0.21820093334390
27 0.11992529526584
28 0.12792925162593
29 0.10230658281794
30 0.12840788080549
31 0.000000039497289
32 0.000000301822349
33 -0.53813674208312
34 -0.71382751192172
35 0.000001252332950
 Sym=     22.1
 Ene=       1.5931
 Spin= Alpha
 Occup=    0.000000
1 0.46137327084036
2 1.81432399311046
3 -3.33642455513598
4 0.000001316962757
5 -0.000000203872226
6 -0.30192146830324
7 -0.000001478080796
8 0.000000229866346
9 0.046759975330184
10 -0.31587079229223
11 -0.31587119973867
12 0.63174199203089
13 0.000000156840315
14 0.000001192400662
15 0.000001334838358
16 0.91204308900415
17 -0.16874188176969
18 -0.003922910370088
19 0.001177134018328
20 0.24349099723210
21 0.91204241443921
22 -0.16874234019343
23 0.002981139748623
24 0.002808707843049
25 0.24349249556333
26 0.91204349857252
27 -0.16874260814722
28 0.000941038822700
29 -0.003986229244162
30 0.24349137204098
31 -0.13962544856347
32 0.32165453935964
33 0.000002461194734
34 0.000000542366517
35 0.54211286562473
 Sym=     23.1
 Ene=       1.6169
 Spin= Alpha
 Occup=    0.000000
1 -0.000000001688215
2 -0.000000006585344
3 0.000000011357866
4 -0.000000213078080
5 0.000000003243584
6 0.000000001041036
7 0.000000894003817