[Molden Format]
[Molpro variables]
_NUMVAR=  709.0000000000000    
_EV2006= 0.3674930886769165E-01
_EV= 0.3674932534394180E-01
_KJOULE= 0.3808798324128737E-03
_KJOULE/MOL= 0.3808798324128737E-03
_CM= 0.4556335267302901E-05
_CM-1= 0.4556335267302901E-05
_KCAL= 0.1593601117815568E-02
_KCAL/MOL= 0.1593601117815568E-02
_KELVIN2006= 0.3166828861084835E-05
_KELVIN= 0.3166814820820034E-05
_HERTZ2006= 0.1519829850815779E-15
_HERTZ= 0.1519829846011223E-15
_HZ2006= 0.1519829850815779E-15
_HZ= 0.1519829846011223E-15
_TOA2006= 0.5291772490000000    
_TOA= 0.5291772090000000    
_TOANG2006= 0.5291772490000000    
_TOANG= 0.5291772090000000    
_TORAD= 0.1745329251994330E-01
_TOCM=  219474.6306700000    
_TODEBYE=  2.541580000000000    
_TOEV2006=  27.21139610000000    
_TOEV=  27.21138390000000    
_TOHERTZ2006=  6579683899900000.    
_TOHERTZ=  6579683920700000.    
_TOHZ2006=  6579683899900000.    
_TOHZ=  6579683920700000.    
_TOK2006=  315773.3000000000    
_TOK=  315774.7000000000    
_TOKCAL=  627.5096000000000    
_TOKELVIN2006=  315773.3000000000    
_TOKELVIN=  315774.7000000000    
_TOKJ=  2625.500000000000    
_TOKJOULE=  2625.500000000000    
_ANG2006=  1.889725988578923    
_ANG=  1.889726131421507    
_ANGSTROM2006=  1.889725988578923    
_ANGSTROM=  1.889726131421507    
_IGNORE_UNDEF=  2.000000000000000    
_STRICTCHECK=  0.000000000000000    
_SEW_ONEEL=  0.000000000000000    
_CPPDONE=FALSE
_DKROLL_DONE=  0.000000000000000    
_FOCKDONE=  0.000000000000000    
_GRADONE=FALSE
_HESSDONE=TRUE
_INTDONE=TRUE
_SCFDONE=FALSE
_MODUL_CUDA=FALSE
_MODUL_SLATER=FALSE
_MODUL_MRCC=FALSE
_MRCC_EXEC=
_FITC_AO_SAVED=FALSE
_FITC_MO_SAVED=FALSE
_SHARED_FS=TRUE
_LSTYP=SEWARD
_INTYP=INTS
_GEOMTYP=ZMAT
_GRADTYP=ALASKA
_DIRECT=FALSE
_SYNCM=  0.000000000000000    
_BASIS=CC-PVDZ
_ZORIENT=  1.000000000000000    
_NELEC=  16.00000000000000    
_SPIN=  0.000000000000000    
!SPIN=  0.000000000000000    
_OPTCONV= 0.1942153545928111E-02
_QSDSTEP=  0.000000000000000    
_QSDIRC=  0.000000000000000    
_PROGRAM=FREQ
_CPUSTEP=  0.000000000000000    
_SYSSTEP=  0.000000000000000    
_WALLSTEP= 0.1000000000000000    
!DFMP2=  0.000000000000000    
!DFSCF=  0.000000000000000    
!SCSGRD=  0.000000000000000    
_BASINP=  610.0000000000000    
_CPUTOT=  114.4600000000000    
_DFTEXFAC=  1.000000000000000    
_DMX= 0.2813388109774055E-05
_DMY= 0.2007463196276325    
_DMZ= 0.2388140551596674    
_FREQUENCIES= -395.8386395550771    
_EMP2= -78.14707115614030    
_ENERGR= -77.92160221255658    
_ENERGU= -78.19464084769450    
_ENERGY= -78.14707115614030    
_ENUC=  30.19857686170086    
_FREQSTEP=  37.00000000000000    
!RS2GRSTATE=  1.000000000000000    
!RS2GRSYM=  1.000000000000000    
_GRADENERG= -78.14706718863195    
_GRADEXFAC=  9999.000000000000    
_GRADMETHOD=TRUE
_GRADRECORD=  5200.100000000000    
_VIRIAL= 0.2713286612107932E-01
!GRID_FREEZE= -1.000000000000000    
_ITERATIONS=  0.000000000000000    
_LASTNELEC=  4.000000000000000    
_LASTSPIN=  0.000000000000000    
_LASTSYM=  1.000000000000000    
_MPP_PROG=  1.000000000000000    
_MSENERGY= -78.14707115614030    
_NPROC_MPP=  4.000000000000000    
_NPROC_SMP=  1.000000000000000    
_NUMSTEP=  0.000000000000000    
_OPTCONVMX= 0.1124903207798036E-02
_OPTCONVRMS= 0.1765594132661920E-03
_OPTGRAD= 0.4921601885390838E-03
_OPTGRADMX= 0.2858601708328149E-03
_OPTGRADRMS= 0.4474183532173490E-04
_OPTSTEP=  8.000000000000000    
_ORBITAL=  2143.200000000000    
_PI=  3.141592653589793    
!MCACT=  4.000000000000000    
!MCCLOSED=  6.000000000000000    
!MCFREEZE=  0.000000000000000    
!MCMS2=  0.000000000000000    
!MCNEL=  4.000000000000000    
!MCNSTSYM=  1.000000000000000    
!MCSTATE=  1.000000000000000    
!MCSYM=  1.000000000000000    
!MCWEIGHT=  1.000000000000000    
_SEIG_MIN= 0.4123304804584424E-02
_SEWPROP=TRUE
_STATUS=  1.000000000000000    
_SYSTOT=  7.070000000000000    
_VERSION=  2010001.000000000    
_WALLTOT=  371.5500000000000    
_ZPE= 0.3754272300955742E-01
_DATE=05-Sep-19
_LASTORB=MCSCF
_MACHINE=Linux-2.6.34-12-desktop/tt108(x86_64) 64 bit mpp version
_OUTPUT=/home/carlo/qm/combustion/barrierless/c2h4_c2h3_h/dist_3.2/molpro.xml
_PGROUP=C1
_TIME=23:52:29
_LIBMOL=/programs/molpro2010p/bin/../lib/
!SURFREC=  0.000000000000000    
!POLYREC=  0.000000000000000    
!DIPREC=  0.000000000000000    
!VSCFREC=  0.000000000000000    
!VCIREC=  0.000000000000000    
!PVCIREC=  0.000000000000000    
!VMP2REC=  0.000000000000000    
!VMCSCFREC=  0.000000000000000    
!GAREC=  0.000000000000000    
!SCFORB=  21002.00000000000    
!MCORB=  21432.00000000000    
!CIOCC=  10.00000000000000    
!CICORE=  2.000000000000000    
!CICLOS=  6.000000000000000    
!CIISTSYM=  1.000000000000000    
!CIISTMS2=  0.000000000000000    
!CIISTNEL=  12.00000000000000    
!NEWMOL=  0.000000000000000    
!NEWSYM=  0.000000000000000    
_SLFILES=slscratch
_NGSSTO=  9.000000000000000    
_SIN=SIN
_COS=COS
_TAN=TAN
_ACOS=ACOS
_ASIN=ASIN
_ATAN=ATAN
_COSH=COSH
_SINH=SINH
_TANH=TANH
_ABS=ABS
_MOD=MOD
_ERF=ERF
_REFC=REFC
_ERFC=ERFC
_HYPOT=HYPOT
_J0=J0
_J1=J1
_JN=JN
_GAMMA=GAMMA
_LGAMMA=LGAMMA
_Y0=Y0
_Y1=Y1
_YN=YN
_EXP=EXP
_LOG=LOG
_LOG10=LOG10
_SQRT=SQRT
_INT=INT
_NINT=NINT
_MAX=MAX
_MIN=MIN
_COSMO=  0.000000000000000    
_COSMOIT=  0.000000000000000    
_COSMOES=  0.000000000000000    
_COSMOEDS=  0.000000000000000    
_COSMOEC=  0.000000000000000    
_COSMOEDCORR=  0.000000000000000    
_FEPSI=  1.000000000000000    
_SL_IsMM=  0.000000000000000    
_SL_NSYM=  0.000000000000000    
_SL_System_BitSw=  0.000000000000000    
_SL_Unique_atoms=  0.000000000000000    
_SL_GRAD=  0.000000000000000    
_SL_MAXUPD_Hess=  5.000000000000000    
_SL_N_PRINT_COD=  5.000000000000000    
_SL_PRINT_CODES=  0.000000000000000    
_SL_BasType=  0.000000000000000    
_SL_Energy_Pred=  0.000000000000000    
_SL_New_Coords=  0.000000000000000    
_SL_Total_Nuclea=  0.000000000000000    
_SL_Highest_Mltp=  0.000000000000000    
_SL_Ref_Geom=  0.000000000000000    
!LATTICE= -1.000000000000000    
!NEWLATTICE=  0.000000000000000    
!LATGRAD_VAR=FALSE
!SEW_LATTICE=  1.000000000000000    
!LOCAL=  0.000000000000000    
!SAVEDOM= -1.000000000000000    
!RESTDOM= -1.000000000000000    
!SAVEDOM_HF= -1.000000000000000    
!RESTDOM_HF= -1.000000000000000    
!HESSREC=  5300.200000000000    
!FREQREC=  5400.200000000000    
!NMODREC=  5450.200000000000    
!GTASKS=  0.000000000000000    
!HTASKS=  5500.200000000000    
!THRCHG= 0.1000000000000000    
!DEBUG= -1.000000000000000    
!CFIT_CPHF=  0.000000000000000    
!RDOMAUX_CPHF=  3.000000000000000    
!THRAO_CPHF= 0.1000000000000000E-09
!THRMO_CPHF= 0.1000000000000000E-09
!THROV_CPHF= 0.1000000000000000E-11
!THRSW_CPHF= 0.1000000000000000E-09
!THRPROD_CPHF= 0.1000000000000000E-09
!THRAOPR_CPHF= 0.1000000000000000E-11
!CFIT_SCFGRD=  0.000000000000000    
!RDOMAUX_SCFGRD=  5.000000000000000    
!THRAO_SCFGRD= 0.1000000000000000E-09
!THRMO_SCFGRD= 0.1000000000000000E-09
!THROV_SCFGRD= 0.1000000000000000E-11
!THRSW_SCFGRD= 0.1000000000000000E-09
!THRPROD_SCFGRD= 0.1000000000000000E-09
!THRAOPR_SCFGRD= 0.1000000000000000E-11
!LOCFIT_SCF=  0.000000000000000    
!LOCFIT_MP2= -1.000000000000000    
_RIDOM=  0.000000000000000    
!CC2_METHOD=  0.000000000000000    
_BASIS2006=FALSE
_SVDDEL= -1.000000000000000    
_SVDDELA= -1.000000000000000    
_SVDDELP= -1.000000000000000    
_SVDDELF= -1.000000000000000    
_SVDDELS= -1.000000000000000    
_SVDDEL_ABS= -1.000000000000000    
_SVDDELA_ABS= -1.000000000000000    
_SVDDELP_ABS= -1.000000000000000    
_SVDDELF_ABS= -1.000000000000000    
_SVDDELS_ABS= -1.000000000000000    
_MAXBASIS=  0.000000000000000    
!OPT_CONICAL=  0.000000000000000    
!CLEARSP_JGRID=  0.000000000000000    
RCC1=  1.333252903458465    
RCC2=  1.099777684532992    
RCC3=  1.094704306509191    
RCH2=  1.091657137438683    
ACCC1=  120.9986443006108    
AHCC1=  121.8126242884984    
AHCC2=  119.0699608241714    
AHCC3=  135.9631009654800    
B1=  179.9999828085425    
B2=  180.0016276476521    
B3=  180.0002366009952    
RCH1=  3.200000000000000    
GX1= 0.1763535887616763E-05
GY1= 0.5634250381939515    
GZ1= -1.044221962719251    
GX2=-0.8356160224895509E-06
GY2=-0.3678859785649595    
GZ2=  1.296814907740713    
GX3=-0.4325281263365581E-04
GY3= 0.8917491979656504    
GZ3=  2.949860969078504    
GX4= 0.3827921481096087E-04
GY4= -2.404398900614843    
GZ4=  1.660269104231809    
GX5=-0.2278040218517458E-04
GY5= -3.261510063055331    
GZ5= -5.727978526934370    
GX6= 0.1669655065568291E-04
GY6=  2.444041261424682    
GZ6= -1.892146052648908    
C1X1= 0.1763535887617379E-05
C1Y1= 0.5634250381939515    
C1Z1= -1.044221962719251    
C2X2=-0.8356160224893411E-06
C2Y2=-0.3678859785649595    
C2Z2=  1.296814907740713    
H3X3=-0.4325281263365538E-04
H3Y3= 0.8917491979656504    
H3Z3=  2.949860969078504    
H4X4= 0.3827921481096112E-04
H4Y4= -2.404398900614843    
H4Z4=  1.660269104231809    
H5X5=-0.2278040218517408E-04
H5Y5= -3.261510063055331    
H5Z5= -5.727978526934370    
H6X6= 0.1669655065568258E-04
H6Y6=  2.444041261424682    
H6Z6= -1.892146052648908    
CBSEN= -78.14707115614030    
[Atoms] Angs
C     1    6         0.0000009332        0.2981516892       -0.5525784638
C     2    6        -0.0000004422       -0.1946768754        0.6862448935
H     3    1        -0.0000228884        0.4718933517        1.5609991946
H     4    1         0.0000202565       -1.2723530996        0.8785765708
H     5    1        -0.0000120549       -1.7259167923       -3.0311156901
H     6    1         0.0000088354        1.2933309334       -1.0012805672
[GTO]
  1 0
 s    9  1.00
  0.6665000000D+04  0.6920001793D-03
  0.1000000000D+04  0.5329001381D-02
  0.2280000000D+03  0.2707700701D-01
  0.6471000000D+02  0.1017180264D+00
  0.2106000000D+02  0.2747400712D+00
  0.7495000000D+01  0.4485641162D+00
  0.2797000000D+01  0.2850740738D+00
  0.5215000000D+00  0.1520400394D-01
  0.1596000000D+00 -0.3191000827D-02
 s    9  1.00
  0.6665000000D+04 -0.1460000642D-03
  0.1000000000D+04 -0.1154000508D-02
  0.2280000000D+03 -0.5725002519D-02
  0.6471000000D+02 -0.2331201026D-01
  0.2106000000D+02 -0.6395502813D-01
  0.7495000000D+01 -0.1499810660D+00
  0.2797000000D+01 -0.1272620560D+00
  0.5215000000D+00  0.5445292395D+00
  0.1596000000D+00  0.5804962554D+00
 s    9  1.00
  0.6665000000D+04  0.0000000000D+00
  0.1000000000D+04  0.0000000000D+00
  0.2280000000D+03  0.0000000000D+00
  0.6471000000D+02  0.0000000000D+00
  0.2106000000D+02  0.0000000000D+00
  0.7495000000D+01  0.0000000000D+00
  0.2797000000D+01  0.0000000000D+00
  0.5215000000D+00  0.0000000000D+00
  0.1596000000D+00  0.1000000000D+01
 p    4  1.00
  0.9439000000D+01  0.3810902127D-01
  0.2002000000D+01  0.2094801169D+00
  0.5456000000D+00  0.5085572839D+00
  0.1517000000D+00  0.4688422617D+00
 p    4  1.00
  0.9439000000D+01  0.0000000000D+00
  0.2002000000D+01  0.0000000000D+00
  0.5456000000D+00  0.0000000000D+00
  0.1517000000D+00  0.1000000000D+01
 d    1  1.00
  0.5500000000D+00  0.1000000000D+01
  
  2 0
 s    9  1.00
  0.6665000000D+04  0.6920001793D-03
  0.1000000000D+04  0.5329001381D-02
  0.2280000000D+03  0.2707700701D-01
  0.6471000000D+02  0.1017180264D+00
  0.2106000000D+02  0.2747400712D+00
  0.7495000000D+01  0.4485641162D+00
  0.2797000000D+01  0.2850740738D+00
  0.5215000000D+00  0.1520400394D-01
  0.1596000000D+00 -0.3191000827D-02
 s    9  1.00
  0.6665000000D+04 -0.1460000642D-03
  0.1000000000D+04 -0.1154000508D-02
  0.2280000000D+03 -0.5725002519D-02
  0.6471000000D+02 -0.2331201026D-01
  0.2106000000D+02 -0.6395502813D-01
  0.7495000000D+01 -0.1499810660D+00
  0.2797000000D+01 -0.1272620560D+00
  0.5215000000D+00  0.5445292395D+00
  0.1596000000D+00  0.5804962554D+00
 s    9  1.00
  0.6665000000D+04  0.0000000000D+00
  0.1000000000D+04  0.0000000000D+00
  0.2280000000D+03  0.0000000000D+00
  0.6471000000D+02  0.0000000000D+00
  0.2106000000D+02  0.0000000000D+00
  0.7495000000D+01  0.0000000000D+00
  0.2797000000D+01  0.0000000000D+00
  0.5215000000D+00  0.0000000000D+00
  0.1596000000D+00  0.1000000000D+01
 p    4  1.00
  0.9439000000D+01  0.3810902127D-01
  0.2002000000D+01  0.2094801169D+00
  0.5456000000D+00  0.5085572839D+00
  0.1517000000D+00  0.4688422617D+00
 p    4  1.00
  0.9439000000D+01  0.0000000000D+00
  0.2002000000D+01  0.0000000000D+00
  0.5456000000D+00  0.0000000000D+00
  0.1517000000D+00  0.1000000000D+01
 d    1  1.00
  0.5500000000D+00  0.1000000000D+01
  
  3 0
 s    4  1.00
  0.1301000000D+02  0.1968498999D-01
  0.1962000000D+01  0.1379769298D+00
  0.4446000000D+00  0.4781477569D+00
  0.1220000000D+00  0.5012397451D+00
 s    4  1.00
  0.1301000000D+02  0.0000000000D+00
  0.1962000000D+01  0.0000000000D+00
  0.4446000000D+00  0.0000000000D+00
  0.1220000000D+00  0.1000000000D+01
 p    1  1.00
  0.7270000000D+00  0.1000000000D+01
  
  4 0
 s    4  1.00
  0.1301000000D+02  0.1968498999D-01
  0.1962000000D+01  0.1379769298D+00
  0.4446000000D+00  0.4781477569D+00
  0.1220000000D+00  0.5012397451D+00
 s    4  1.00
  0.1301000000D+02  0.0000000000D+00
  0.1962000000D+01  0.0000000000D+00
  0.4446000000D+00  0.0000000000D+00
  0.1220000000D+00  0.1000000000D+01
 p    1  1.00
  0.7270000000D+00  0.1000000000D+01
  
  5 0
 s    4  1.00
  0.1301000000D+02  0.1968498999D-01
  0.1962000000D+01  0.1379769298D+00
  0.4446000000D+00  0.4781477569D+00
  0.1220000000D+00  0.5012397451D+00
 s    4  1.00
  0.1301000000D+02  0.0000000000D+00
  0.1962000000D+01  0.0000000000D+00
  0.4446000000D+00  0.0000000000D+00
  0.1220000000D+00  0.1000000000D+01
 p    1  1.00
  0.7270000000D+00  0.1000000000D+01
  
  6 0
 s    4  1.00
  0.1301000000D+02  0.1968498999D-01
  0.1962000000D+01  0.1379769298D+00
  0.4446000000D+00  0.4781477569D+00
  0.1220000000D+00  0.5012397451D+00
 s    4  1.00
  0.1301000000D+02  0.0000000000D+00
  0.1962000000D+01  0.0000000000D+00
  0.4446000000D+00  0.0000000000D+00
  0.1220000000D+00  0.1000000000D+01
 p    1  1.00
  0.7270000000D+00  0.1000000000D+01
 
 
[MO]
 Sym=      1.1
 Ene=     -11.2467
 Spin= Alpha
 Occup=    2.000000
1 0.99591093511183
2 0.006576637030161
3 -0.007182248799807
4 0.000000084942774
5 0.001260368577476
6 0.000738985711424
7 -0.000000012858276
8 -0.000914628052331
9 -0.000982352437516
10 -0.000658488705226
11 0.000421186926213
12 0.000237301779013
13 0.000000008726496
14 -0.000000000865537
15 -0.001200990472867
16 0.10111331970813
17 -0.000535236241639
18 0.001557383816010
19 0.000000080057643
20 -0.000227783517637
21 0.000439414893306
22 -0.000000006873403
23 0.001132007904479
24 -0.001112491296098
25 0.000251471015806
26 0.000193787441368
27 -0.000445258457175
28 0.000000006176887
29 -0.000000000789372
30 -0.000338016577925
31 0.000133559271024
32 0.000099899608352
33 0.000000008550758
34 -0.000185629207390
35 -0.000154664428692
36 0.000038355902702
37 0.000831940741125
38 0.000000001899538
39 0.000005833141660
40 -0.000129959894335
41 -0.000247472297468
42 0.000152223374359
43 0.000000000079766
44 0.000005970402996
45 0.000010026663713
46 -0.001440271883953
47 0.002250756910704
48 0.000000008422013
49 0.000876794717465
50 -0.000025931197977
 Sym=      2.1
 Ene=     -11.2387
 Spin= Alpha
 Occup=    2.000000
1 -0.10213826142074
2 -0.001566870908890
3 0.003344932780856
4 -0.000000007605882
5 -0.000061920047228
6 -0.000418721998414
7 -0.000000001418076
8 -0.000521718353188
9 0.001217343242235
10 0.000376490756009
11 -0.000168569643473
12 -0.000207921112536
13 0.000000004905199
14 0.000000004687621
15 0.000257743266996
16 0.99629499683702
17 0.008496390482518
18 -0.009574458175096
19 -0.000000021162607
20 -0.000025613809389
21 -0.000034425049292
22 0.000000009113711
23 -0.000196310995550
24 0.000657942050386
25 -0.000749927709943
26 0.000258321125286
27 0.000491606584657
28 -0.000000022924000
29 -0.000000012315896
30 -0.000074330597392
31 -0.000580368192464
32 0.001472190312729
33 -0.000000011882650
34 0.000400586586141
35 0.000392170571332
36 -0.000567557431085
37 0.001485520797456
38 0.000000011166882
39 -0.000543747225064
40 0.000029579875852
41 0.000040136636664
42 -0.000041549107791
43 -0.000000000041893
44 0.000000238141314
45 -0.000006137622752
46 0.000305830782355
47 -0.000001163417703
48 -0.000000004157116
49 -0.000212678543123
50 0.000054788284825
 Sym=      3.1
 Ene=      -1.0154
 Spin= Alpha
 Occup=    2.000000
1 -0.017710880963095
2 0.55838352559057
3 -0.12493215659468
4 0.000002649828173
5 -0.035651850300202
6 0.23013179748569
7 -0.000000085627891
8 0.011055942678388
9 -0.058483923457540
10 -0.010418592694486
11 -0.007914019285595
12 0.018332611980081
13 0.000000022114383
14 0.000000145854209
15 -0.014202402072960
16 -0.023459979432929
17 0.65787943547748
18 -0.18722499653198
19 0.000002973391521
20 0.070996073324085
21 -0.16229563797269
22 -0.000000103105079
23 -0.024869145641379
24 0.067274203981247
25 -0.007211325852371
26 -0.006103337916541
27 0.013314663768912
28 0.000000163802963
29 -0.000000135656038
30 -0.012877112874487
31 0.21026857762963
32 -0.10339662467396
33 0.000000454004740
34 -0.010595308172782
35 -0.017511393520746
36 0.21538259485146
37 -0.097544674619541
38 -0.000000299059427
39 0.019360741752848
40 -0.005704417807656
41 -0.002243305140287
42 -0.002141882483494
43 0.000000004092858
44 0.000117129599585
45 0.000163909779840
46 0.16586330684914
47 -0.070973570525614
48 -0.000000033886301
49 -0.011874084480070
50 0.008946125161339
 Sym=      4.1
 Ene=      -0.7586
 Spin= Alpha
 Occup=    2.000000
1 -0.011642873629107
2 0.51785915382924
3 -0.090545567308629
4 0.000003914534614
5 0.23672621615192
6 -0.093785938593080
7 -0.000000480992584
8 -0.054055059944290
9 0.023940348822215
10 -0.002593328519699
11 0.008156907880791
12 -0.005563579361093
13 0.000000047548078
14 0.000000114416501
15 -0.001862646645662
16 0.011076277585579
17 -0.37955560410438
18 0.057089133897127
19 0.000002775251428
20 0.16182124921908
21 -0.25586746926676
22 0.000000026436380
23 -0.035991216105205
24 0.057568402094458
25 0.000753258284942
26 -0.007291469611912
27 0.006538211326970
28 0.000000420156247
29 -0.000000036180287
30 -0.013584612381932
31 -0.28719632225937
32 0.10095008359182
33 -0.000000338930196
34 0.014173710807122
35 0.011369774886027
36 -0.34962847305344
37 0.13750465300423
38 0.000000554430591
39 -0.022127316427390
40 -0.000689112510681
41 -0.002894147405365
42 -0.002990867458102
43 0.000000004632352
44 0.000192907331238
45 0.000164043289388
46 0.48371341380809
47 -0.17857855300900
48 -0.000000197568557
49 -0.025879172804294
50 0.012247911454085
 Sym=      5.1
 Ene=      -0.6115
 Spin= Alpha
 Occup=    2.000000
1 -0.002521038729751
2 -0.10328334153935
3 0.056475930333325
4 -0.000001031615021
5 0.36954792695852
6 -0.32662685619611
7 -0.000000015165469
8 -0.099088725162137
9 0.085636035815697
10 -0.000160148642558
11 0.007492796457164
12 -0.007332647814606
13 0.000000124975001
14 -0.000000338224631
15 0.010009865297294
16 -0.002787934145619
17 0.007416151857006
18 0.019059379736686
19 -0.000009239110296
20 0.15820116946350
21 0.56696380825897
22 0.000001514098352
23 -0.025657493673340
24 -0.12246826476794
25 -0.000780301458546
26 0.009230512482990
27 -0.008450211024445
28 -0.000000336517921
29 -0.000000335553384
30 0.015416990599200
31 0.53466467516572
32 -0.15726425070271
33 0.000000474432585
34 -0.016433572199165
35 -0.014341929544500
36 -0.045161293079918
37 0.018153408503573
38 -0.000000109727903
39 -0.000195803032417
40 0.009911487049128
41 0.003469354457478
42 0.002770879828095
43 -0.000000001294201
44 0.000106999253287
45 -0.000137368510112
46 0.37138484540303
47 -0.11213532039817
48 -0.000000223318663
49 -0.014761836157115
50 0.003016731093898
 Sym=      6.1
 Ene=      -0.5720
 Spin= Alpha
 Occup=    2.000000
1 0.002395920400059
2 -0.029444883167654
3 -0.029543381611696
4 -0.000003075258230
5 -0.16426882561354
6 0.31435723947126
7 0.000001278426402
8 0.034760835740843
9 -0.090584747578205
10 0.001918940166126
11 -0.022702868971429
12 0.020783928805303
13 0.000000052190829
14 -0.000000297353251
15 0.016128031082163
16 0.000906668638674
17 0.034313975115505
18 -0.010219468000098
19 -0.000010858155956
20 0.59750181227946
21 -0.089423875311442
22 0.000002602485454
23 -0.11584662223473
24 0.016736861033425
25 -0.000463316085155
26 -0.019868045483199
27 0.020331361568355
28 0.000000263093233
29 -0.000000278034371
30 0.008756169708216
31 0.32030479108615
32 -0.080650373226258
33 0.000000147671179
34 0.001165757056019
35 -0.015163263425710
36 -0.59499149482763
37 0.16194281999738
38 0.000000402397469
39 -0.020508914927094
40 0.004776785666797
41 0.005299667742814
42 0.004555794746657
43 -0.000000001585999
44 -0.000145514732251
45 -0.000144766216704
46 -0.31772499302782
47 0.075880773851711
48 0.000000049580602
49 0.009382901294838
50 -0.001663877791562
 Sym=      7.1
 Ene=      -0.3650
 Spin= Alpha
 Occup=    1.898659
1 0.000000008772285
2 -0.000012129584627
3 -0.000000844228852
4 0.60315748477422
5 0.000007716659693
6 0.000009451824676
7 -0.013029792470376
8 -0.000000926365638
9 0.000000037605326
10 -0.000000267900362
11 -0.000000301582862
12 0.000000569483224
13 -0.008006088166985
14 0.027953307372938
15 0.000000511172454
16 0.000000090706126
17 0.000001270187777
18 0.000000153757882
19 0.60411662598562
20 0.000011783787710
21 0.000006174639740
22 0.001120193493531
23 0.000000474374802
24 -0.000000104775528
25 -0.000000015444466
26 0.000000372468445
27 -0.000000357023978
28 0.010831355935962
29 -0.025927430960051
30 -0.000000139045906
31 0.000000838142091
32 -0.000000316982689
33 0.013328457939847
34 0.000000288003904
35 0.000000137409887
36 0.000000579086966
37 -0.000000832395971
38 0.013260050728952
39 0.000000356742268
40 0.000000100553651
41 -0.000000405175736
42 -0.000000112359831
43 0.000477354019146
44 -0.000000040853604
45 -0.000000056118768
46 0.000000041146885
47 0.000000130204268
48 0.014211304461005
49 0.000000011372285
50 0.000000245359021
 Sym=      8.1
 Ene=      -0.1980
 Spin= Alpha
 Occup=    1.224584
1 0.001064443819924
2 0.23324768944570
3 0.082470586169084
4 0.000012935060152
5 -0.40599521543257
6 -0.41063326446028
7 0.000001210613550
8 -0.023071963827273
9 -0.017643140761546
10 0.002149433216028
11 -0.004117717577205
12 0.001968284361177
13 -0.000000381656224
14 -0.000000148058042
15 0.018255836978523
16 -0.001634744421155
17 -0.078948409802711
18 0.022249465257231
19 0.000002426160043
20 0.003222154132302
21 0.096702219754744
22 -0.000000482119271
23 0.045470913133329
24 -0.009899382126529
25 0.000849880312228
26 -0.016298197267115
27 0.015448316954887
28 0.000000249932258
29 -0.000000693042715
30 0.020415862764015
31 0.12460100010566
32 0.010159804356359
33 0.000000086120438
34 -0.000452206599892
35 0.000460534655618
36 -0.093444384251216
37 0.016232448183869
38 0.000000052657213
39 0.000163879970969
40 0.002778230940802
41 0.67106941417643
42 0.025912167550965
43 0.000000019996398
44 0.000408709356192
45 0.000422891224486
46 -0.14768713152622
47 0.018162651435160
48 0.000000330137438
49 -0.004651031295351
50 -0.010193805469305
 Sym=      9.1
 Ene=      -0.1088
 Spin= Alpha
 Occup=    0.775427
1 -0.001409765810883
2 -0.26122753610746
3 -0.10588156895094
4 -0.000013138466227
5 0.44304486290877
6 0.45422881829745
7 -0.000001185014537
8 0.032064372725672
9 0.009688570284258
10 -0.001021767105554
11 0.003985364069903
12 -0.002963596964349
13 0.000000452634009
14 0.000000305219876
15 -0.021915077095120
16 0.000802528908651
17 0.078982737950891
18 -0.009439636250838
19 -0.000000656345792
20 -0.003981655484755
21 -0.10752550832674
22 0.000000813262190
23 -0.054576771198245
24 -0.003403018318877
25 -0.001845137040802
26 0.017445429537842
27 -0.015600292497040
28 -0.000000258929691
29 0.000000704573995
30 -0.021678416798216
31 -0.13417993156168
32 -0.002498362316606
33 -0.000000048813096
34 0.000433645686057
35 0.000152964182670
36 0.094778990019443
37 -0.014839655651451
38 -0.000000011522889
39 -0.000190573580727
40 -0.003202972475076
41 0.74744981487279
42 -0.027388035899447
43 -0.000000008202733
44 -0.001126369028834
45 -0.001496570821692
46 0.15236534415190
47 -0.020089023823656
48 -0.000000325469824
49 0.004565987379824
50 0.010348806736854
 Sym=     10.1
 Ene=       0.2175
 Spin= Alpha
 Occup=    0.101330
1 -0.000001254629927
2 -0.000013485040941
3 -0.000002016814457
4 0.89028736097007
5 0.000007109561468
6 0.000010233183132
7 -0.031234360676553
8 0.000000035953412
9 -0.000005167358450
10 -0.000002471952029
11 0.000001426703381
12 0.000001045248647
13 -0.006968164027603
14 -0.012245339437622
15 -0.000001232209631
16 -0.000000104668130
17 0.000002686861033
18 0.000003638320048
19 -0.85650859577191
20 -0.000015147459219
21 -0.000012573565244
22 0.008010304874494
23 0.000001144365127
24 -0.000001713409363
25 -0.000000164260610
26 -0.000000074256433
27 0.000000238517043
28 0.003575423500765
29 -0.009659582848082
30 0.000000078387640
31 0.000001825783318
32 0.000000970534311
33 -0.011161149787991
34 -0.000000222245718
35 -0.000000198357626
36 -0.000002954552787
37 0.000000946260988
38 -0.010937021611846
39 -0.000000258782289
40 -0.000000134595790
41 0.000000269723008
42 0.000000679778645
43 0.000036225515231
44 0.000000042046094
45 0.000000056406953
46 0.000006860921657
47 -0.000001523789989
48 0.011777539830635
49 0.000000017042238
50 0.000000240806041
 Sym=     11.1
 Ene=       0.2109
 Spin= Alpha
 Occup=    0.000000
1 -0.018293597682495
2 0.062002820499029
3 0.67081375102351
4 0.000001535827279
5 0.13242009338388
6 -0.10638442621192
7 0.000004495812179
8 0.32148814599661
9 -0.19975997392202
10 -0.004555614061354
11 0.006969522996355
12 -0.002413908935001
13 0.000000497728835
14 -0.000000008600587
15 -0.011918957108434
16 -0.061189688022375
17 0.15184806701727
18 1.71250830531588
19 -0.000002334484749
20 -0.024943500383979
21 0.24879088010776
22 -0.000005140156189
23 -0.16857556524853
24 0.49743864435746
25 -0.020710830700468
26 0.019522393983810
27 0.001188436716659
28 -0.000001060460722
29 -0.000000430651927
30 0.002387893496495
31 -0.028868083030496
32 -1.39806282496836
33 -0.000000388523766
34 0.010658847786558
35 0.016293516433183
36 -0.036256705019224
37 -1.06518287804467
38 0.000000367817204
39 -0.018037086928489
40 0.004821174455127
41 0.062225794255831
42 -0.041700678284800
43 -0.000000017156970
44 -0.000223888824737
45 -0.003455977861266
46 0.035424119363498
47 -0.91983116773212
48 0.000000193519856
49 0.008732984500623
50 -0.012770288411826
 Sym=     12.1
 Ene=       0.2245
 Spin= Alpha
 Occup=    0.000000
1 0.041110367549613
2 -0.15586952062044
3 -1.08695263631287
4 -0.000003477425247
5 -0.26538411486749
6 0.048615339198647
7 -0.000010328302436
8 -0.56575644076159
9 0.29859582178967
10 0.010582026377689
11 -0.019864704864367
12 0.009282678486677
13 -0.000000194688215
14 0.000000246017614
15 0.000764043411411
16 -0.025610466034778
17 0.15594678915207
18 0.64784725476255
19 0.000005533984147
20 -0.19023844837855
21 -0.043934831970858
22 0.000014351187069
23 -0.35624621352199
24 0.12751753285642
25 -0.009330376497499
26 0.002695286871776
27 0.006635089625723
28 -0.000000347479152
29 -0.000000054125457
30 0.014825638068526
31 0.011294707232514
32 -0.002091241374476
33 -0.000000045354189
34 0.005598519780861
35 0.000922825304353
36 -0.061144441696435
37 -1.25868423593372
38 0.000000285317095
39 -0.013985938718313
40 -0.002996730516714
41 -0.003002616829269
42 -0.009044158293050
43 -0.000000032683424
44 0.001708945645409
45 -0.000039737326952
46 0.083949215065136
47 1.76688775219604
48 -0.000000243539639
49 -0.022762719411160
50 0.004724137271705
 Sym=     13.1
 Ene=       0.2701
 Spin= Alpha
 Occup=    0.000000
1 0.023460096365121
2 -0.072590032496634
3 -0.80769856502410
4 -0.000002010909315
5 -0.084454716462383
6 0.034134427004373
7 0.000006429893739
8 -0.76787186486919
9 -0.068617170948921
10 0.017384576386909
11 -0.025397872055678
12 0.008013295668769
13 -0.000000188890069
14 0.000000041255107
15 0.016571852571630
16 -0.011360519290401
17 0.016893177649935
18 0.20482915054919
19 -0.000009578555623
20 0.37465049663849
21 0.14783428393852
22 -0.000028544606469
23 1.34876327761740
24 0.45998666457036
25 -0.005112968332391
26 -0.014151753831148
27 0.019264722163539
28 0.000000087872495
29 -0.000000540796076
30 0.021818301499399
31 0.016354435543598
32 -1.94000947929662
33 -0.000000484297551
34 0.012009892353362
35 0.024012665211623
36 -0.033086870912639
37 1.71386371164347
38 -0.000000401655739
39 0.020426664117306
40 -0.010842903605185
41 -0.10850158120038
42 0.056268894468361
43 0.000000103579761
44 0.005962631317439
45 0.009041159124429
46 -0.062535432309347
47 1.18125219073869
48 -0.000000135844208
49 -0.018628811890153
50 0.010861069176569
 Sym=     14.1
 Ene=       0.4574
 Spin= Alpha
 Occup=    0.000000
1 -0.044448433545121
2 0.18080382004176
3 3.69831185465326
4 -0.000002474425121
5 -0.23929777715456
6 0.16805136382522
7 0.000000519583484
8 -1.26726666051958
9 2.66200014087490
10 -0.030761239894329
11 -0.023346597725150
12 0.054107837619479
13 0.000000878919778
14 -0.000000096473512
15 -0.044041368106105
16 0.081336531128546
17 0.061673656783973
18 -3.64042586746002
19 -0.000003674708715
20 -0.015307508009434
21 0.087220513359521
22 -0.000006694269005
23 -1.05995026804687
24 3.19742613594235
25 0.055724988093412
26 -0.034606656652873
27 -0.021118331440539
28 0.000001964767982
29 0.000000876391824
30 0.026175588312688
31 -0.22212480252313
32 -0.67012068696405
33 0.000000237927108
34 -0.012327902568821
35 0.003751257751413
36 -0.27216352924925
37 -0.23857435850694
38 -0.000000691438681
39 0.021193119681839
40 0.008379882347995
41 0.19302029692636
42 -0.15722616083533
43 -0.000000059714036
44 -0.013063610685108
45 -0.005483941195998
46 -0.086566849402463
47 1.16598833768717
48 0.000000265597273
49 0.016046908541919
50 -0.000529032964947
 Sym=     15.1
 Ene=       0.5962
 Spin= Alpha
 Occup=    0.000000
1 -0.17888651634887
2 -0.57058262339510
3 0.97389044815201
4 0.000000775035909
5 0.12209561973816
6 -0.47241205442883
7 0.000007016814907
8 -0.48376593668436
9 1.31752973108130
10 0.084641522242688
11 -0.060901124871880