 Entering Gaussian System, Link 0=g09
 Input=run.inp
 Output=run.out
 Initial command:
 /soft/gaussian/09-e.01/g09/l1.exe "/blues/gpfs/home/elliott/Packages/PACC/moldriver/rcdriver/rundir/SPC/H2/UFHFLCQGNIYNRP/0/1/UHFFFAOYSA-N/ezvN4wR/RUN/HESS/A00/Gau-54702.inp" -scrdir="/blues/gpfs/home/elliott/Packages/PACC/moldriver/rcdriver/rundir/SPC/H2/UFHFLCQGNIYNRP/0/1/UHFFFAOYSA-N/ezvN4wR/RUN/HESS/A00/"
 Entering Link 1 = /soft/gaussian/09-e.01/g09/l1.exe PID=     54703.
  
 Copyright (c) 1988,1990,1992,1993,1995,1998,2003,2009,2015,
            Gaussian, Inc.  All Rights Reserved.
  
 This is part of the Gaussian(R) 09 program.  It is based on
 the Gaussian(R) 03 system (copyright 2003, Gaussian, Inc.),
 the Gaussian(R) 98 system (copyright 1998, Gaussian, Inc.),
 the Gaussian(R) 94 system (copyright 1995, Gaussian, Inc.),
 the Gaussian 92(TM) system (copyright 1992, Gaussian, Inc.),
 the Gaussian 90(TM) system (copyright 1990, Gaussian, Inc.),
 the Gaussian 88(TM) system (copyright 1988, Gaussian, Inc.),
 the Gaussian 86(TM) system (copyright 1986, Carnegie Mellon
 University), and the Gaussian 82(TM) system (copyright 1983,
 Carnegie Mellon University). Gaussian is a federally registered
 trademark of Gaussian, Inc.
  
 This software contains proprietary and confidential information,
 including trade secrets, belonging to Gaussian, Inc.
  
 This software is provided under written license and may be
 used, copied, transmitted, or stored only in accord with that
 written license.
  
 The following legend is applicable only to US Government
 contracts under FAR:
  
                    RESTRICTED RIGHTS LEGEND
  
 Use, reproduction and disclosure by the US Government is
 subject to restrictions as set forth in subparagraphs (a)
 and (c) of the Commercial Computer Software - Restricted
 Rights clause in FAR 52.227-19.
  
 Gaussian, Inc.
 340 Quinnipiac St., Bldg. 40, Wallingford CT 06492
  
  
 ---------------------------------------------------------------
 Warning -- This program may not be used in any manner that
 competes with the business of Gaussian, Inc. or will provide
 assistance to any competitor of Gaussian, Inc.  The licensee
 of this program is prohibited from giving any competitor of
 Gaussian, Inc. access to this program.  By using this program,
 the user acknowledges that Gaussian, Inc. is engaged in the
 business of creating and licensing software in the field of
 computational chemistry and represents and warrants to the
 licensee that it is not a competitor of Gaussian, Inc. and that
 it will not use this program in any manner prohibited above.
 ---------------------------------------------------------------
  

 Cite this work as:
 Gaussian 09, Revision E.01,
 M. J. Frisch, G. W. Trucks, H. B. Schlegel, G. E. Scuseria, 
 M. A. Robb, J. R. Cheeseman, G. Scalmani, V. Barone, B. Mennucci, 
 G. A. Petersson, H. Nakatsuji, M. Caricato, X. Li, H. P. Hratchian, 
 A. F. Izmaylov, J. Bloino, G. Zheng, J. L. Sonnenberg, M. Hada, 
 M. Ehara, K. Toyota, R. Fukuda, J. Hasegawa, M. Ishida, T. Nakajima, 
 Y. Honda, O. Kitao, H. Nakai, T. Vreven, J. A. Montgomery, Jr., 
 J. E. Peralta, F. Ogliaro, M. Bearpark, J. J. Heyd, E. Brothers, 
 K. N. Kudin, V. N. Staroverov, T. Keith, R. Kobayashi, J. Normand, 
 K. Raghavachari, A. Rendell, J. C. Burant, S. S. Iyengar, J. Tomasi, 
 M. Cossi, N. Rega, J. M. Millam, M. Klene, J. E. Knox, J. B. Cross, 
 V. Bakken, C. Adamo, J. Jaramillo, R. Gomperts, R. E. Stratmann, 
 O. Yazyev, A. J. Austin, R. Cammi, C. Pomelli, J. W. Ochterski, 
 R. L. Martin, K. Morokuma, V. G. Zakrzewski, G. A. Voth, 
 P. Salvador, J. J. Dannenberg, S. Dapprich, A. D. Daniels, 
 O. Farkas, J. B. Foresman, J. V. Ortiz, J. Cioslowski, 
 and D. J. Fox, Gaussian, Inc., Wallingford CT, 2013.
 
 ******************************************
 Gaussian 09:  ES64L-G09RevE.01 30-Nov-2015
                23-Aug-2019 
 ******************************************
 %mem=20GB
 %NProcShared=10
 Will use up to   10 processors via shared memory.
 --------------------------------------------------------------------
 #P b3lyp/cc-pvdz # SCF=(xqc) # Freq=() # IOp(7/33=1) # int=ultrafine
 --------------------------------------------------------------------
 1/10=4,30=1,38=1/1,3;
 2/12=2,17=6,18=5,40=1/2;
 3/5=16,11=2,16=1,25=1,30=1,71=2,74=-5,75=-5,140=1/1,2,3;
 4//1;
 5/5=2,8=3,13=1,38=5,98=1/2,8;
 8/6=4,10=90,11=11/1;
 11/6=1,8=1,9=11,15=111,16=1/1,2,10;
 10/6=1/2;
 6/7=2,8=2,9=2,10=2,18=1,28=1/1;
 7/8=1,10=1,25=1,33=1/1,2,3,16;
 1/10=4,30=1/3;
 99//99;
 Leave Link    1 at Fri Aug 23 16:56:00 2019, MaxMem=  2684354560 cpu:         0.7
 (Enter /soft/gaussian/09-e.01/g09/l101.exe)
 --------
 comment:
 --------
 Symbolic Z-matrix:
 Charge =  0 Multiplicity = 1
 H                     0.        0.        0.38082 
 H                     0.        0.       -0.38082 
 
 NAtoms=      2 NQM=        2 NQMF=       0 NMMI=      0 NMMIF=      0
                NMic=       0 NMicF=      0.
                    Isotopes and Nuclear Properties:
 (Nuclear quadrupole moments (NQMom) in fm**2, nuclear magnetic moments (NMagM)
  in nuclear magnetons)

  Atom         1           2
 IAtWgt=           1           1
 AtmWgt=   1.0078250   1.0078250
 NucSpn=           1           1
 AtZEff=   0.0000000   0.0000000
 NQMom=    0.0000000   0.0000000
 NMagM=    2.7928460   2.7928460
 AtZNuc=   1.0000000   1.0000000
 Leave Link  101 at Fri Aug 23 16:56:00 2019, MaxMem=  2684354560 cpu:         0.5
 (Enter /soft/gaussian/09-e.01/g09/l103.exe)

 GradGradGradGradGradGradGradGradGradGradGradGradGradGradGradGradGradGrad
 Berny optimization.
 Initialization pass.
 Trust Radius=3.00D-01 FncErr=1.00D-07 GrdErr=1.00D-07
 Number of steps in this run=      2 maximum allowed number of steps=      2.
 GradGradGradGradGradGradGradGradGradGradGradGradGradGradGradGradGradGrad

 Leave Link  103 at Fri Aug 23 16:56:00 2019, MaxMem=  2684354560 cpu:         0.2
 (Enter /soft/gaussian/09-e.01/g09/l202.exe)
                          Input orientation:                          
 ---------------------------------------------------------------------
 Center     Atomic      Atomic             Coordinates (Angstroms)
 Number     Number       Type             X           Y           Z
 ---------------------------------------------------------------------
      1          1           0        0.000000    0.000000    0.380815
      2          1           0        0.000000    0.000000   -0.380815
 ---------------------------------------------------------------------
 Stoichiometry    H2
 Framework group  D*H[C*(H.H)]
 Deg. of freedom     1
 Full point group                 D*H     NOp   8
 Largest Abelian subgroup         D2H     NOp   8
 Largest concise Abelian subgroup C2      NOp   2
                         Standard orientation:                         
 ---------------------------------------------------------------------
 Center     Atomic      Atomic             Coordinates (Angstroms)
 Number     Number       Type             X           Y           Z
 ---------------------------------------------------------------------
      1          1           0        0.000000    0.000000    0.380815
      2          1           0        0.000000    0.000000   -0.380815
 ---------------------------------------------------------------------
 Rotational constants (GHZ):      0.0000000   1728.9162812   1728.9162812
 Leave Link  202 at Fri Aug 23 16:56:00 2019, MaxMem=  2684354560 cpu:         0.1
 (Enter /soft/gaussian/09-e.01/g09/l301.exe)
 Standard basis: CC-pVDZ (5D, 7F)
 Ernie: Thresh=  0.10000D-02 Tol=  0.10000D-05 Strict=F.
 There are     3 symmetry adapted cartesian basis functions of AG  symmetry.
 There are     0 symmetry adapted cartesian basis functions of B1G symmetry.
 There are     1 symmetry adapted cartesian basis functions of B2G symmetry.
 There are     1 symmetry adapted cartesian basis functions of B3G symmetry.
 There are     0 symmetry adapted cartesian basis functions of AU  symmetry.
 There are     3 symmetry adapted cartesian basis functions of B1U symmetry.
 There are     1 symmetry adapted cartesian basis functions of B2U symmetry.
 There are     1 symmetry adapted cartesian basis functions of B3U symmetry.
 There are     3 symmetry adapted basis functions of AG  symmetry.
 There are     0 symmetry adapted basis functions of B1G symmetry.
 There are     1 symmetry adapted basis functions of B2G symmetry.
 There are     1 symmetry adapted basis functions of B3G symmetry.
 There are     0 symmetry adapted basis functions of AU  symmetry.
 There are     3 symmetry adapted basis functions of B1U symmetry.
 There are     1 symmetry adapted basis functions of B2U symmetry.
 There are     1 symmetry adapted basis functions of B3U symmetry.
    10 basis functions,    14 primitive gaussians,    10 cartesian basis functions
     1 alpha electrons        1 beta electrons
       nuclear repulsion energy         0.6947956470 Hartrees.
 IExCor=  402 DFT=T Ex+Corr=B3LYP ExCW=0 ScaHFX=  0.200000
 ScaDFX=  0.800000  0.720000  1.000000  0.810000 ScalE2=  1.000000  1.000000
 IRadAn=      5 IRanWt=     -1 IRanGd=            0 ICorTp=0 IEmpDi=  4
 NAtoms=    2 NActive=    2 NUniq=    1 SFac= 4.00D+00 NAtFMM=   60 NAOKFM=F Big=F
 Integral buffers will be    131072 words long.
 Raffenetti 2 integral format.
 Two-electron integral symmetry is turned on.
 Leave Link  301 at Fri Aug 23 16:56:00 2019, MaxMem=  2684354560 cpu:         0.6
 (Enter /soft/gaussian/09-e.01/g09/l302.exe)
 NPDir=0 NMtPBC=     1 NCelOv=     1 NCel=       1 NClECP=     1 NCelD=      1
         NCelK=      1 NCelE2=     1 NClLst=     1 CellRange=     0.0.
 One-electron integrals computed using PRISM.
 One-electron integral symmetry used in STVInt
 NBasis=    10 RedAO= T EigKep=  6.96D-02  NBF=     3     0     1     1     0     3     1     1
 NBsUse=    10 1.00D-06 EigRej= -1.00D+00 NBFU=     3     0     1     1     0     3     1     1
 Precomputing XC quadrature grid using
 IXCGrd= 4 IRadAn=           5 IRanWt=          -1 IRanGd=           0 AccXCQ= 0.00D+00.
 Generated NRdTot=       0 NPtTot=           0 NUsed=           0 NTot=          32
 NSgBfM=    10    10    10    10    10 MxSgAt=     2 MxSgA2=     2.
 Leave Link  302 at Fri Aug 23 16:56:01 2019, MaxMem=  2684354560 cpu:         1.3
 (Enter /soft/gaussian/09-e.01/g09/l303.exe)
 DipDrv:  MaxL=1.
 Leave Link  303 at Fri Aug 23 16:56:01 2019, MaxMem=  2684354560 cpu:         0.2
 (Enter /soft/gaussian/09-e.01/g09/l401.exe)
 ExpMin= 1.22D-01 ExpMax= 1.30D+01 ExpMxC= 1.30D+01 IAcc=3 IRadAn=         5 AccDes= 0.00D+00
 Harris functional with IExCor=  402 and IRadAn=       5 diagonalized for initial guess.
 HarFok:  IExCor=  402 AccDes= 0.00D+00 IRadAn=         5 IDoV= 1 UseB2=F ITyADJ=14
 ICtDFT=  3500011 ScaDFX=  1.000000  1.000000  1.000000  1.000000
 FoFCou: FMM=F IPFlag=           0 FMFlag=      100000 FMFlg1=           0
         NFxFlg=           0 DoJE=T BraDBF=F KetDBF=T FulRan=T
         wScrn=  0.000000 ICntrl=     500 IOpCl=  0 I1Cent=   200000004 NGrid=           0
         NMat0=    1 NMatS0=      1 NMatT0=    0 NMatD0=    1 NMtDS0=    0 NMtDT0=    0
 Petite list used in FoFCou.
 Harris En= -1.17895570677599    
 JPrj=0 DoOrth=F DoCkMO=F.
 Initial guess orbital symmetries:
       Occupied  (SGG)
       Virtual   (SGU) (SGG) (SGU) (PIU) (PIU) (SGG) (PIG) (PIG)
                 (SGU)
 The electronic state of the initial guess is 1-SGG.
 Leave Link  401 at Fri Aug 23 16:56:01 2019, MaxMem=  2684354560 cpu:         1.0
 (Enter /soft/gaussian/09-e.01/g09/l502.exe)
 Closed shell SCF:
 Using DIIS extrapolation, IDIIS=  1040.
 Integral symmetry usage will be decided dynamically.
 Keep R1 ints in memory in symmetry-blocked form, NReq=871023.
 IVT=        7701 IEndB=        7701 NGot=  2684354560 MDV=  2684345908
 LenX=  2684345908 LenY=  2684345026
 Requested convergence on RMS density matrix=1.00D-08 within  64 cycles.
 Requested convergence on MAX density matrix=1.00D-06.
 Requested convergence on             energy=1.00D-06.
 No special actions if energy rises.
 FoFCou: FMM=F IPFlag=           0 FMFlag=           0 FMFlg1=           0
         NFxFlg=           0 DoJE=F BraDBF=F KetDBF=F FulRan=T
         wScrn=  0.000000 ICntrl=     600 IOpCl=  0 I1Cent=           0 NGrid=           0
         NMat0=    1 NMatS0=     55 NMatT0=    0 NMatD0=    1 NMtDS0=    0 NMtDT0=    0
 Petite list used in FoFCou.
 Integral accuracy reduced to 1.0D-05 until final iterations.

 Cycle   1  Pass 0  IDiag  1:
 E= -1.16884584483463    
 DIIS: error= 1.87D-02 at cycle   1 NSaved=   1.
 NSaved= 1 IEnMin= 1 EnMin= -1.16884584483463     IErMin= 1 ErrMin= 1.87D-02
 ErrMax= 1.87D-02  0.00D+00 EMaxC= 1.00D-01 BMatC= 2.20D-03 BMatP= 2.20D-03
 IDIUse=3 WtCom= 8.13D-01 WtEn= 1.87D-01
 Coeff-Com:  0.100D+01
 Coeff-En:   0.100D+01
 Coeff:      0.100D+01
 Gap=     0.485 Goal=   None    Shift=    0.000
 GapD=    0.485 DampG=2.000 DampE=0.500 DampFc=1.0000 IDamp=-1.
 RMSDP=7.85D-03 MaxDP=3.27D-02              OVMax= 6.03D-02

 Cycle   2  Pass 0  IDiag  1:
 E= -1.17343490039442     Delta-E=       -0.004589055560 Rises=F Damp=F
 DIIS: error= 4.30D-03 at cycle   2 NSaved=   2.
 NSaved= 2 IEnMin= 2 EnMin= -1.17343490039442     IErMin= 2 ErrMin= 4.30D-03
 ErrMax= 4.30D-03  0.00D+00 EMaxC= 1.00D-01 BMatC= 8.98D-05 BMatP= 2.20D-03
 IDIUse=3 WtCom= 9.57D-01 WtEn= 4.30D-02
 Coeff-Com:  0.165D+00 0.835D+00
 Coeff-En:   0.000D+00 0.100D+01
 Coeff:      0.158D+00 0.842D+00
 Gap=     0.496 Goal=   None    Shift=    0.000
 RMSDP=1.11D-03 MaxDP=4.49D-03 DE=-4.59D-03 OVMax= 9.12D-03

 Cycle   3  Pass 0  IDiag  1:
 E= -1.17360206919659     Delta-E=       -0.000167168802 Rises=F Damp=F
 DIIS: error= 4.85D-05 at cycle   3 NSaved=   3.
 NSaved= 3 IEnMin= 3 EnMin= -1.17360206919659     IErMin= 3 ErrMin= 4.85D-05
 ErrMax= 4.85D-05  0.00D+00 EMaxC= 1.00D-01 BMatC= 1.06D-08 BMatP= 8.98D-05
 IDIUse=1 WtCom= 1.00D+00 WtEn= 0.00D+00
 Coeff-Com: -0.102D-01-0.487D-01 0.106D+01
 Coeff:     -0.102D-01-0.487D-01 0.106D+01
 Gap=     0.496 Goal=   None    Shift=    0.000
 RMSDP=1.30D-05 MaxDP=5.58D-05 DE=-1.67D-04 OVMax= 6.89D-05

 Cycle   4  Pass 0  IDiag  1:
 E= -1.17360208466674     Delta-E=       -0.000000015470 Rises=F Damp=F
 DIIS: error= 4.80D-07 at cycle   4 NSaved=   4.
 NSaved= 4 IEnMin= 4 EnMin= -1.17360208466674     IErMin= 4 ErrMin= 4.80D-07
 ErrMax= 4.80D-07  0.00D+00 EMaxC= 1.00D-01 BMatC= 1.01D-12 BMatP= 1.06D-08
 IDIUse=1 WtCom= 1.00D+00 WtEn= 0.00D+00
 Coeff-Com:  0.270D-05-0.491D-04 0.721D-02 0.993D+00
 Coeff:      0.270D-05-0.491D-04 0.721D-02 0.993D+00
 Gap=     0.496 Goal=   None    Shift=    0.000
 RMSDP=1.61D-07 MaxDP=6.94D-07 DE=-1.55D-08 OVMax= 1.08D-06

 Initial convergence to 1.0D-05 achieved.  Increase integral accuracy.
 Cycle   5  Pass 1  IDiag  1:
 E= -1.17360206781911     Delta-E=        0.000000016848 Rises=F Damp=F
 DIIS: error= 3.06D-09 at cycle   1 NSaved=   1.
 NSaved= 1 IEnMin= 1 EnMin= -1.17360206781911     IErMin= 1 ErrMin= 3.06D-09
 ErrMax= 3.06D-09  0.00D+00 EMaxC= 1.00D-01 BMatC= 3.84D-17 BMatP= 3.84D-17
 IDIUse=1 WtCom= 1.00D+00 WtEn= 0.00D+00
 Coeff-Com:  0.100D+01
 Coeff:      0.100D+01
 Gap=     0.496 Goal=   None    Shift=    0.000
 RMSDP=1.61D-07 MaxDP=6.94D-07 DE= 1.68D-08 OVMax= 7.16D-09

 Cycle   6  Pass 1  IDiag  1:
 E= -1.17360206781911     Delta-E=       -0.000000000000 Rises=F Damp=F
 DIIS: error= 5.18D-10 at cycle   2 NSaved=   2.
 NSaved= 2 IEnMin= 2 EnMin= -1.17360206781911     IErMin= 2 ErrMin= 5.18D-10
 ErrMax= 5.18D-10  0.00D+00 EMaxC= 1.00D-01 BMatC= 1.14D-18 BMatP= 3.84D-17
 IDIUse=1 WtCom= 1.00D+00 WtEn= 0.00D+00
 Coeff-Com:  0.757D-01 0.924D+00
 Coeff:      0.757D-01 0.924D+00
 Gap=     0.496 Goal=   None    Shift=    0.000
 RMSDP=1.13D-10 MaxDP=4.38D-10 DE=-1.33D-15 OVMax= 9.70D-10

 SCF Done:  E(RB3LYP) =  -1.17360206782     A.U. after    6 cycles
            NFock=  6  Conv=0.11D-09     -V/T= 2.0827
 KE= 1.083985899563D+00 PE=-3.559644245233D+00 EE= 6.072606308959D-01
 Leave Link  502 at Fri Aug 23 16:56:01 2019, MaxMem=  2684354560 cpu:         1.0
 (Enter /soft/gaussian/09-e.01/g09/l508.exe)
 QCSCF skips out because SCF is already converged.
 Leave Link  508 at Fri Aug 23 16:56:01 2019, MaxMem=  2684354560 cpu:         0.0
 (Enter /soft/gaussian/09-e.01/g09/l801.exe)
 DoSCS=F DFT=T ScalE2(SS,OS)=  1.000000  1.000000
 Range of M.O.s used for correlation:     1    10
 NBasis=    10 NAE=     1 NBE=     1 NFC=     0 NFV=     0
 NROrb=     10 NOA=     1 NOB=     1 NVA=     9 NVB=     9
 Leave Link  801 at Fri Aug 23 16:56:01 2019, MaxMem=  2684354560 cpu:         0.2
 (Enter /soft/gaussian/09-e.01/g09/l1101.exe)
 Using compressed storage, NAtomX=     2.
 Will process      3 centers per pass.
 Leave Link 1101 at Fri Aug 23 16:56:01 2019, MaxMem=  2684354560 cpu:         1.1
 (Enter /soft/gaussian/09-e.01/g09/l1102.exe)
 Symmetrizing basis deriv contribution to polar:
 IMax=3 JMax=2 DiffMx= 0.00D+00
 Leave Link 1102 at Fri Aug 23 16:56:01 2019, MaxMem=  2684354560 cpu:         0.2
 (Enter /soft/gaussian/09-e.01/g09/l1110.exe)
 Forming Gx(P) for the SCF density, NAtomX=     2.
 Integral derivatives from FoFJK, PRISM(SPDF).
 Do as many integral derivatives as possible in FoFJK.
 G2DrvN: MDV=    2684354440.
 G2DrvN: will do     3 centers at a time, making    1 passes.
 Calling FoFCou, ICntrl=  3107 FMM=F I1Cent=   0 AccDes= 0.00D+00.
 FoFJK:  IHMeth= 1 ICntrl=    3107 DoSepK=F KAlg= 0 I1Cent=   0 FoldK=F
 IRaf=         0 NMat=   1 IRICut=       1 DoRegI=T DoRafI=F ISym2E= 1.
 FoFCou: FMM=F IPFlag=           0 FMFlag=      100000 FMFlg1=           0
         NFxFlg=           0 DoJE=F BraDBF=F KetDBF=F FulRan=T
         wScrn=  0.000000 ICntrl=    3107 IOpCl=  0 I1Cent=           0 NGrid=           0
         NMat0=    1 NMatS0=      1 NMatT0=    0 NMatD0=    1 NMtDS0=    0 NMtDT0=    0
 Petite list used in FoFCou.
 End of G2Drv F.D. properties file   721 does not exist.
 End of G2Drv F.D. properties file   722 does not exist.
 End of G2Drv F.D. properties file   788 does not exist.
 Leave Link 1110 at Fri Aug 23 16:56:01 2019, MaxMem=  2684354560 cpu:         0.9
 (Enter /soft/gaussian/09-e.01/g09/l1002.exe)
 Minotr:  Closed shell wavefunction.
          IDoAtm=11
          Direct CPHF calculation.
          Differentiating once with respect to electric field.
                with respect to dipole field.
          Differentiating once with respect to nuclear coordinates.
          Using symmetry in CPHF.
          Requested convergence is 1.0D-08 RMS, and 1.0D-07 maximum.
          Secondary convergence is 1.0D-12 RMS, and 1.0D-12 maximum.
          NewPWx=T KeepS1=F KeepF1=F KeepIn=T MapXYZ=F SortEE=F KeepMc=T.
          MDV=    2684354526 using IRadAn=       1.
 Generate precomputed XC quadrature information.
 Keep R1 ints in memory in symmetry-blocked form, NReq=860945.
 FoFCou: FMM=F IPFlag=           0 FMFlag=           0 FMFlg1=           0
         NFxFlg=           0 DoJE=F BraDBF=F KetDBF=F FulRan=T
         wScrn=  0.000000 ICntrl=     600 IOpCl=  0 I1Cent=           0 NGrid=           0
         NMat0=    1 NMatS0=     55 NMatT0=    0 NMatD0=    1 NMtDS0=    0 NMtDT0=    0
 Petite list used in FoFCou.
          Solving linear equations simultaneously, MaxMat=       0.
          There are     6 degrees of freedom in the 1st order CPHF.  IDoFFX=4 NUNeed=     6.
      6 vectors produced by pass  0 Test12= 1.50D-16 1.67D-08 XBig12= 4.02D+00 1.99D+00.
 AX will form     6 AO Fock derivatives at one time.
      2 vectors produced by pass  1 Test12= 1.50D-16 1.67D-08 XBig12= 7.22D-02 2.64D-01.
      1 vectors produced by pass  2 Test12= 1.50D-16 1.67D-08 XBig12= 2.28D-06 1.50D-03.
 InvSVY:  IOpt=1 It=  1 EMax= 5.00D-17
 Solved reduced A of dimension     9 with     6 vectors.
 FullF1:  Do perturbations    1 to     6.
 Isotropic polarizability for W=    0.000000        3.04 Bohr**3.
 End of Minotr F.D. properties file   721 does not exist.
 End of Minotr F.D. properties file   722 does not exist.
 End of Minotr F.D. properties file   788 does not exist.
 Leave Link 1002 at Fri Aug 23 16:56:01 2019, MaxMem=  2684354560 cpu:         1.0
 (Enter /soft/gaussian/09-e.01/g09/l601.exe)
 Copying SCF densities to generalized density rwf, IOpCl= 0 IROHF=0.

 **********************************************************************

            Population analysis using the SCF density.

 **********************************************************************

 Orbital symmetries:
       Occupied  (SGG)
       Virtual   (SGU) (SGG) (SGU) (PIU) (PIU) (SGG) (PIG) (PIG)
                 (SGU)
 The electronic state is 1-SGG.
 Alpha  occ. eigenvalues --   -0.42574
 Alpha virt. eigenvalues --    0.07049   0.33267   0.69501   1.04758   1.04758
 Alpha virt. eigenvalues --    1.66215   1.76426   1.76426   3.14591
          Condensed to atoms (all electrons):
               1          2
     1  H    0.586420   0.413580
     2  H    0.413580   0.586420
 Mulliken charges:
               1
     1  H    0.000000
     2  H    0.000000
 Sum of Mulliken charges =   0.00000
 Mulliken charges with hydrogens summed into heavy atoms:
               1
 APT charges:
               1
     1  H    0.000000
     2  H    0.000000
 Sum of APT charges =   0.00000
 APT charges with hydrogens summed into heavy atoms:
               1
 Electronic spatial extent (au):  <R**2>=              5.1551
 Charge=              0.0000 electrons
 Dipole moment (field-independent basis, Debye):
    X=              0.0000    Y=             -0.0000    Z=              0.0000  Tot=              0.0000
 Quadrupole moment (field-independent basis, Debye-Ang):
   XX=             -2.0436   YY=             -2.0436   ZZ=             -1.4534
   XY=             -0.0000   XZ=             -0.0000   YZ=              0.0000
 Traceless Quadrupole moment (field-independent basis, Debye-Ang):
   XX=             -0.1968   YY=             -0.1968   ZZ=              0.3935
   XY=             -0.0000   XZ=             -0.0000   YZ=              0.0000
 Octapole moment (field-independent basis, Debye-Ang**2):
  XXX=             -0.0000  YYY=              0.0000  ZZZ=              0.0000  XYY=             -0.0000
  XXY=             -0.0000  XXZ=             -0.0000  XZZ=             -0.0000  YZZ=              0.0000
  YYZ=              0.0000  XYZ=              0.0000
 Hexadecapole moment (field-independent basis, Debye-Ang**3):
 XXXX=             -1.9278 YYYY=             -1.9278 ZZZZ=             -2.8313 XXXY=             -0.0000
 XXXZ=              0.0000 YYYX=             -0.0000 YYYZ=              0.0000 ZZZX=              0.0000
 ZZZY=              0.0000 XXYY=             -0.6426 XXZZ=             -0.8111 YYZZ=             -0.8111
 XXYZ=              0.0000 YYXZ=              0.0000 ZZXY=             -0.0000
 N-N= 6.947956469546D-01 E-N=-3.559644245909D+00  KE= 1.083985899563D+00
 Symmetry AG   KE= 1.083985899563D+00
 Symmetry B1G  KE= 0.000000000000D+00
 Symmetry B2G  KE= 2.956780538676D-34
 Symmetry B3G  KE= 2.956780538676D-34
 Symmetry AU   KE= 0.000000000000D+00
 Symmetry B1U  KE= 7.295008782118D-33
 Symmetry B2U  KE= 6.293717267908D-35
 Symmetry B3U  KE= 6.293717267908D-35
  Exact polarizability:   1.191   0.000   1.191  -0.000   0.000   6.726
 Approx polarizability:   1.270  -0.000   1.270  -0.000  -0.000   8.142
 No NMR shielding tensors so no spin-rotation constants.
 Leave Link  601 at Fri Aug 23 16:56:01 2019, MaxMem=  2684354560 cpu:         1.3
 (Enter /soft/gaussian/09-e.01/g09/l701.exe)
 Compute integral second derivatives.
 ... and contract with generalized density number  0.
 Entering OneElI...
 Calculate overlap and kinetic energy integrals
    NBasis =  10  MinDer = 2  MaxDer = 2
 Requested accuracy = 0.1000D-12
 PrsmSu:  NPrtUS=  10 ThrOK=T IAlg=1 NPAlg=1 LenDen=           0.
 Prism:   IPart=     0 DynPar=F LinDyn=F Incr=           1.
 PRISM was handed   268434222 working-precision words and    21 shell-pairs
 PRISM was handed   268434222 working-precision words and    21 shell-pairs
 PRISM was handed   268434222 working-precision words and    21 shell-pairs
 PRISM was handed   268434222 working-precision words and    21 shell-pairs
 PRISM was handed   268434222 working-precision words and    21 shell-pairs
 PRISM was handed   268434222 working-precision words and    21 shell-pairs
 PRISM was handed   268434222 working-precision words and    21 shell-pairs
 PRISM was handed   268434222 working-precision words and    21 shell-pairs
 PRISM was handed   268434222 working-precision words and    21 shell-pairs
 PRISM was handed   268434222 working-precision words and    21 shell-pairs
 IPart=  6 NShTot=           0 NBatch=           0 AvBLen=         0.0
 IPart=  5 NShTot=           0 NBatch=           0 AvBLen=         0.0
 IPart=  9 NShTot=           0 NBatch=           0 AvBLen=         0.0
 IPart=  4 NShTot=           0 NBatch=           0 AvBLen=         0.0
 IPart=  3 NShTot=           3 NBatch=           3 AvBLen=         1.0
 IPart=  8 NShTot=           0 NBatch=           0 AvBLen=         0.0
 IPart=  7 NShTot=           0 NBatch=           0 AvBLen=         0.0
 IPart=  2 NShTot=           6 NBatch=           6 AvBLen=         1.0
 IPart=  0 NShTot=           6 NBatch=           6 AvBLen=         1.0
 IPart=  1 NShTot=           6 NBatch=           6 AvBLen=         1.0
 PrSmSu:  NxtVal=             11.
 Entering OneElI...
 Calculate potential energy integrals
    NBasis =  10  MinDer = 2  MaxDer = 2
 Requested accuracy = 0.1000D-12
 PrsmSu:  NPrtUS=  10 ThrOK=T IAlg=1 NPAlg=1 LenDen=           0.
 Prism:   IPart=     0 DynPar=F LinDyn=F Incr=           1.
 PRISM was handed   268434218 working-precision words and    21 shell-pairs
 PRISM was handed   268434218 working-precision words and    21 shell-pairs
 PRISM was handed   268434218 working-precision words and    21 shell-pairs
 PRISM was handed   268434218 working-precision words and    21 shell-pairs
 PRISM was handed   268434218 working-precision words and    21 shell-pairs
 PRISM was handed   268434218 working-precision words and    21 shell-pairs
 PRISM was handed   268434218 working-precision words and    21 shell-pairs
 PRISM was handed   268434218 working-precision words and    21 shell-pairs
 PRISM was handed   268434218 working-precision words and    21 shell-pairs
 PRISM was handed   268434218 working-precision words and    21 shell-pairs
 IPart=  3 NShTot=           6 NBatch=           3 AvBLen=         2.0
 IPart=  9 NShTot=           0 NBatch=           0 AvBLen=         0.0
 IPart=  1 NShTot=          12 NBatch=           6 AvBLen=         2.0
 IPart=  5 NShTot=           0 NBatch=           0 AvBLen=         0.0
 IPart=  7 NShTot=           0 NBatch=           0 AvBLen=         0.0
 IPart=  2 NShTot=          12 NBatch=           6 AvBLen=         2.0
 IPart=  0 NShTot=          12 NBatch=           6 AvBLen=         2.0
 IPart=  4 NShTot=           0 NBatch=           0 AvBLen=         0.0
 IPart=  6 NShTot=           0 NBatch=           0 AvBLen=         0.0
 IPart=  8 NShTot=           0 NBatch=           0 AvBLen=         0.0
 PrSmSu:  NxtVal=             11.
 Polarizability after L701:
                1             2             3 
      1  0.119058D+01
      2  0.000000D+00  0.119058D+01
      3  0.000000D+00  0.000000D+00  0.672633D+01
 Dipole Derivatives after L701:
                 1             2             3             4             5 
      1   0.000000D+00  0.000000D+00  0.000000D+00  0.000000D+00  0.000000D+00
      2   0.000000D+00  0.000000D+00  0.000000D+00  0.000000D+00  0.000000D+00
      3   0.000000D+00  0.000000D+00  0.000000D+00  0.000000D+00  0.000000D+00
                 6 
      1   0.000000D+00
      2   0.000000D+00
      3   0.000000D+00
 Hessian after L701:
                1             2             3             4             5 
      1  0.312241D+00
      2  0.000000D+00  0.312241D+00
      3  0.000000D+00  0.000000D+00  0.241854D+00
      4 -0.312241D+00  0.000000D+00  0.000000D+00  0.312241D+00
      5  0.000000D+00 -0.312241D+00  0.000000D+00  0.000000D+00  0.312241D+00
      6  0.000000D+00  0.000000D+00 -0.241854D+00  0.000000D+00  0.000000D+00
                6 
      6  0.241854D+00
 Leave Link  701 at Fri Aug 23 16:56:02 2019, MaxMem=  2684354560 cpu:         1.4
 (Enter /soft/gaussian/09-e.01/g09/l702.exe)
 L702 exits ... SP integral derivatives will be done elsewhere.
 Leave Link  702 at Fri Aug 23 16:56:02 2019, MaxMem=  2684354560 cpu:         0.2
 (Enter /soft/gaussian/09-e.01/g09/l703.exe)
 Compute integral second derivatives, UseDBF=F ICtDFT=           0.
 Integral derivatives from FoFJK, PRISM(SPDF).
 ICntrl=    100127.
 Calling FoFJK, ICntrl=    100127 FMM=F ISym2X=1 I1Cent= 0 IOpClX= 0 NMat=1 NMatS=1 NMatT=0.
 FoFJK:  IHMeth= 1 ICntrl=  100127 DoSepK=F KAlg= 0 I1Cent=   0 FoldK=F
 IRaf=         0 NMat=   1 IRICut=       1 DoRegI=T DoRafI=F ISym2E= 1.
 FoFCou: FMM=F IPFlag=           0 FMFlag=      100000 FMFlg1=         800
         NFxFlg=           0 DoJE=F BraDBF=F KetDBF=F FulRan=T
         wScrn=  0.000000 ICntrl=  100127 IOpCl=  0 I1Cent=           0 NGrid=           0
         NMat0=    1 NMatS0=      1 NMatT0=    0 NMatD0=    1 NMtDS0=    0 NMtDT0=    0
 Petite list used in FoFCou.
 FoFCou:  KetSym=F NOpSet=  8 NOpAb=8 NOp=  8.
 FoFCou:  CnvScl= 1.00D+00 Thresh= 1.00D-10 IAcrcy=      10.
 PrismS was handed  2684351935 working-precision words and    21 shell-pairs
 FoFCou: LinMIO=F DoNuc=F BraDBF=F KetDBF=F HaveP=T PDBF=F HaveZ=T HaveW=F
         NIJTC =       3 NIJTAt=       0 NIJTCD=       0 NIJTT =       3
         IJTBeg=       1 IJTEnd=       3 KLTBeg=       1 KLTEnd=       3
         IPTBeg=       1 IPTEnd=       3 IPTBCv=       1 IPTECv=       3
         IZTBeg=       1 IZTEnd=       3 IZTBCv=       1 IZTECv=       3
         IWTBeg=       4 IWTEnd=       3 IWTBCv=       4 IWTECv=       3
         INTBeg=       1 INTEnd=       0 IFTBCv=       1 IFTECv=       3
 NCel replicated for PrismC:     1
 CoulSu:  IncDef=  1024 NBBP=            231 NTPThr=   100 NPartT=   10 Incr=           1 LDynOK=F.
 CoulSu:  NPrtUS=  10 ThrOK=T IAlg=1 NPAlg=1 LenDen=           0 LWGrdD=           0 DoCopy=F.
 Enter PrismC: JobTyp=22 DoJE=F Cont=F.
 PrismC:  IPart=     0 DynPar=F LinDyn=F Incr=           1 UseFst=F UseS4=T IGathr=2.
 PrismC was handed   268434199 working-precision words and    21 shell-pairs
 Enter PrismC: JobTyp=22 DoJE=F Cont=F.
 PrismC was handed   268434199 working-precision words and    21 shell-pairs
 Enter PrismC: JobTyp=22 DoJE=F Cont=F.
 PrismC was handed   268434199 working-precision words and    21 shell-pairs
 Enter PrismC: JobTyp=22 DoJE=F Cont=F.
 PrismC was handed   268434199 working-precision words and    21 shell-pairs
 Enter PrismC: JobTyp=22 DoJE=F Cont=F.
 PrismC was handed   268434199 working-precision words and    21 shell-pairs
 Enter PrismC: JobTyp=22 DoJE=F Cont=F.
 PrismC was handed   268434199 working-precision words and    21 shell-pairs
 Enter PrismC: JobTyp=22 DoJE=F Cont=F.
 PrismC was handed   268434199 working-precision words and    21 shell-pairs
 Enter PrismC: JobTyp=22 DoJE=F Cont=F.
 PrismC was handed   268434199 working-precision words and    21 shell-pairs
 Enter PrismC: JobTyp=22 DoJE=F Cont=F.
 Enter PrismC: JobTyp=22 DoJE=F Cont=F.
 PrismC was handed   268434199 working-precision words and    21 shell-pairs
 PrismC was handed   268434199 working-precision words and    21 shell-pairs
 IPart=  8 NShTot=           0 NShNF=           0 NShFF=           0 NBatch=           0 AvBLen=         0.0
 IPart=  0 NShTot=           8 NShNF=           8 NShFF=           0 NBatch=           8 AvBLen=         1.0
 IPart=  1 NShTot=          17 NShNF=          17 NShFF=           0 NBatch=          17 AvBLen=         1.0
 IPart=  4 NShTot=          21 NShNF=          21 NShFF=           0 NBatch=          21 AvBLen=         1.0
 IPart=  5 NShTot=          21 NShNF=          21 NShFF=           0 NBatch=          21 AvBLen=         1.0
 IPart=  6 NShTot=          10 NShNF=          10 NShFF=           0 NBatch=          10 AvBLen=         1.0
 IPart=  9 NShTot=           0 NShNF=           0 NShFF=           0 NBatch=           0 AvBLen=         0.0
 IPart=  7 NShTot=          10 NShNF=          10 NShFF=           0 NBatch=          10 AvBLen=         1.0
 IPart=  3 NShTot=          18 NShNF=          18 NShFF=           0 NBatch=          18 AvBLen=         1.0
 IPart=  2 NShTot=          18 NShNF=          18 NShFF=           0 NBatch=          18 AvBLen=         1.0
 CoulSu:  NxtVal=             11.
 ReadGW:  IGet=0 IStart=           1 Next=           1 LGW=           0.
 Remaining memory in FofDFT     2560.00 Mw
 CkSvGd:  ISavGI=        -1 IRadAn=       5 IRASav=       5 ISavGd=        -1.
 CalDSu:  NPrtUS=  10 ThrOK=T IAlg=1 NPAlg=2 DoDPD=T LenP=          55 LenD1P=             0.
 IPart=  0 IRanGd=          0 ScrnBf=T ScrnGd=T RCrit=4.00D+00 DoMicB=T.
 IPart=  3          624 of          648 points in       2 batches and        3 microbatches, Max-NSigAt=       2 Max-NSgAt2=       2
 IPart=  8          612 of          628 points in       2 batches and        5 microbatches, Max-NSigAt=       2 Max-NSgAt2=       2
 IPart=  6          924 of          924 points in       1 batches and        2 microbatches, Max-NSigAt=       2 Max-NSgAt2=       2
 IPart=  9          844 of          860 points in       2 batches and        3 microbatches, Max-NSigAt=       2 Max-NSgAt2=       2
 IPart=  1          608 of          648 points in       2 batches and        4 microbatches, Max-NSigAt=       2 Max-NSgAt2=       2
 IPart=  2          472 of          496 points in       2 batches and        4 microbatches, Max-NSigAt=       2 Max-NSgAt2=       2
 IPart=  5          467 of          496 points in       2 batches and        5 microbatches, Max-NSigAt=       2 Max-NSgAt2=       2
 IPart=  4          475 of          496 points in       2 batches and        6 microbatches, Max-NSigAt=       2 Max-NSgAt2=       2
 IPart=  0          462 of          496 points in       2 batches and        7 microbatches, Max-NSigAt=       2 Max-NSgAt2=       2
 IPart=  7          480 of          496 points in       2 batches and        7 microbatches, Max-NSigAt=       2 Max-NSgAt2=       2
 Polarizability after L703:
                1             2             3 
      1  0.119058D+01
      2  0.000000D+00  0.119058D+01
      3  0.000000D+00  0.000000D+00  0.672633D+01
 Dipole Derivatives after L703:
                 1             2             3             4             5 
      1   0.000000D+00  0.000000D+00  0.000000D+00  0.000000D+00  0.000000D+00
      2   0.000000D+00  0.000000D+00  0.000000D+00  0.000000D+00  0.000000D+00
      3   0.000000D+00  0.000000D+00  0.000000D+00  0.000000D+00  0.000000D+00
                 6 
      1   0.000000D+00
      2   0.000000D+00
      3   0.000000D+00
 Hessian after L703:
                1             2             3             4             5 
      1 -0.449634D-04
      2  0.000000D+00 -0.449634D-04
      3  0.000000D+00  0.000000D+00  0.364118D+00
      4  0.449634D-04  0.000000D+00  0.000000D+00 -0.449634D-04
      5  0.000000D+00  0.449634D-04  0.000000D+00  0.000000D+00 -0.449634D-04
      6  0.000000D+00  0.000000D+00 -0.364118D+00  0.000000D+00  0.000000D+00
                6 
      6  0.364118D+00
 Leave Link  703 at Fri Aug 23 16:56:02 2019, MaxMem=  2684354560 cpu:         0.9
 (Enter /soft/gaussian/09-e.01/g09/l716.exe)
 FrcOut:
 IF    =    27 IFX   =    33 IFXYZ =    39
 IFFX  =    45 IFFFX =    66 IFLen =     6
 IFFLen=    21 IFFFLn=     0 IEDerv=    66
 LEDerv=   341 IFroze=   503 ICStrt=   754
 Dipole        = 4.93038066D-32 0.00000000D+00 8.33751471D-17
 DipoleDeriv   = 5.02934283D-16-2.54667799D-51-8.26816601D-15
                -8.84517930D-36 5.05455053D-16 1.09249247D-32
                -1.42395821D-25 3.90179165D-35 1.92755124D-12
                 5.20932039D-16 2.54667799D-51 8.26816601D-15
                 8.84517930D-36 4.91794105D-16-1.09249247D-32
                -1.73513464D-17-3.90179165D-35 1.97433872D-12
 Polarizability= 1.19058092D+00 0.00000000D+00 1.19058092D+00
                -1.65629748D-13 0.00000000D+00 6.72633073D+00
 VibFq2-Diag1:  N=      6 IV=           3 MDV=  2684353488 NE2=   447392247
 Full mass-weighted force constant matrix:
 Low frequencies ---  -48.5575  -48.5575    0.0000    0.0001    0.0001 4369.6629
 OrtVCM:  Ph=1 IPass= 1 DotMx1= 0.00D+00
 OrtVCM:  IS=    1 I=    1 IndO=    1 Dot= 1.00D+00 DotN= 1.00D+00 ElMax1= 7.07D-01 ElMax1N= 7.07D-01
 OrtVCM:  Ph=2 NNew=    0 IAdd=    2 IPass= 1 DotMx2= 0.00D+00
 OrtVCM:  IS=    1 I=    2 IndO=    2 Dot= 1.00D+00 DotN= 1.00D+00 ElMax1= 7.07D-01 ElMax1N= 7.07D-01
 OrtVCM:  Ph=2 NNew=    0 IAdd=    3 IPass= 1 DotMx2= 0.00D+00
 OrtVCM:  IS=    1 I=    3 IndO=    3 Dot= 1.00D+00 DotN= 1.00D+00 ElMax1= 7.07D-01 ElMax1N= 7.07D-01
 OrtVCM:  Ph=2 NNew=    0 IAdd=    4 IPass= 1 DotMx2= 0.00D+00
 OrtVCM:  IS=    1 I=    4 IndO=    4 Dot= 1.00D+00 DotN= 1.00D+00 ElMax1= 7.07D-01 ElMax1N= 7.07D-01
 OrtVCM:  Ph=2 NNew=    0 IAdd=    5 IPass= 1 DotMx2= 0.00D+00
 OrtVCM:  IS=    1 I=    5 IndO=    5 Dot= 1.00D+00 DotN= 1.00D+00 ElMax1= 7.07D-01 ElMax1N= 7.07D-01
 OrtVCM:  Ph=1 IPass= 1 DotMx1= 7.07D-01
 OrtVCM:  Ph=1 IPass= 2 DotMx1= 1.57D-16
 OrtVCM:  IS=    1 I=    1 IndO=    0 Dot= 1.87D-33 DotN= 1.87D-33 ElMax1= 3.06D-17 ElMax1N= 3.06D-17
 SchOr2:  IPass= 1 Test2A= 1.00D-01 IOff=     0 NDo=     1 NNew=     0
 OrtVCM:  Ph=1 IPass= 1 DotMx1= 7.07D-01
 OrtVCM:  Ph=1 IPass= 2 DotMx1= 1.57D-16
 OrtVCM:  IS=    1 I=    1 IndO=    0 Dot= 2.43D-63 DotN= 2.43D-63 ElMax1= 4.93D-32 ElMax1N= 4.93D-32
 SchOr2:  IPass= 1 Test2A= 1.00D-01 IOff=     1 NDo=     1 NNew=     0
 OrtVCM:  Ph=1 IPass= 1 DotMx1= 7.07D-01
 OrtVCM:  Ph=1 IPass= 2 DotMx1= 1.11D-16
 OrtVCM:  IS=    1 I=    1 IndO=    6 Dot= 5.00D-01 DotN= 5.00D-01 ElMax1= 5.00D-01 ElMax1N= 5.00D-01
 SchOr2:  IPass= 1 Test2A= 1.00D-01 IOff=     2 NDo=     1 NNew=     1
 VibFq2-Diag2:  N=      1 IV=           3 MDV=  2684353488 NE2=  2684353486
 Dipole derivative wrt mode   1:  3.81594D-16  1.71618D-33 -1.02896D-12
 Vibrational polarizability contributions from mode   1       0.0000000       0.0000000       0.0000000
 Diagonal vibrational polarizability:
        0.0000000       0.0000000       0.0000000
 NorSel:  MapVib=      1
 Harmonic frequencies (cm**-1), IR intensities (KM/Mole), Raman scattering
 activities (A**4/AMU), depolarization ratios for plane and unpolarized
 incident light, reduced masses (AMU), force constants (mDyne/A),
 and normal coordinates:
                      1
                     SGG
 Frequencies --   4369.6629
 Red. masses --      1.0078
 Frc consts  --     11.3379
 IR Inten    --      0.0000
  Atom  AN      X      Y      Z
     1   1    -0.00   0.00   0.71
     2   1     0.00   0.00  -0.71

 -------------------
 - Thermochemistry -
 -------------------
 Temperature   298.150 Kelvin.  Pressure   1.00000 Atm.
 Atom     1 has atomic number  1 and mass   1.00783
 Atom     2 has atomic number  1 and mass   1.00783
 Molecular mass:     2.01565 amu.
 Principal axes and moments of inertia in atomic units:
                           1         2         3
     Eigenvalues --     0.00000   1.04386   1.04386
           X           -0.00000   1.00000  -0.00000
           Y            0.00000   0.00000   1.00000
           Z            1.00000   0.00000  -0.00000
 This molecule is a prolate symmetric top.
 Rotational symmetry number  2.
 Rotational temperature (Kelvin)     82.97480
 Rotational constant (GHZ):        1728.916281
 Zero-point vibrational energy      26136.4 (Joules/Mol)
                                    6.24675 (Kcal/Mol)
 Vibrational temperatures:   6286.96
          (Kelvin)
 
 Zero-point correction=                           0.009955 (Hartree/Particle)
 Thermal correction to Energy=                    0.012315
 Thermal correction to Enthalpy=                  0.013259
 Thermal correction to Gibbs Free Energy=        -0.001580
 Sum of electronic and zero-point Energies=             -1.163647
 Sum of electronic and thermal Energies=                -1.161287
 Sum of electronic and thermal Enthalpies=              -1.160343
 Sum of electronic and thermal Free Energies=           -1.175182
 
                     E (Thermal)             CV                S
                      KCal/Mol        Cal/Mol-Kelvin    Cal/Mol-Kelvin
 Total                    7.728              4.968             31.232
 Electronic               0.000              0.000              0.000
 Translational            0.889              2.981             28.080
 Rotational               0.592              1.987              3.152
 Vibrational              6.247              0.000              0.000
                       Q            Log10(Q)             Ln(Q)
 Total Bot       0.532899D+01          0.726645          1.673162
 Total V=0       0.202086D+06          5.305537         12.216449
 Vib (Bot)       0.263699D-04         -4.578892        -10.543288
 Vib (V=0)       0.100000D+01          0.000000          0.000000
 Electronic      0.100000D+01          0.000000          0.000000
 Translational   0.112481D+06          5.051078         11.630537
 Rotational      0.179663D+01          0.254459          0.585913
 Forces in standard orientation:
 -------------------------------------------------------------------
 Center     Atomic                   Forces (Hartrees/Bohr)
 Number     Number              X              Y              Z
 -------------------------------------------------------------------
      1        1          -0.000000000   -0.000000000   -0.000064781
      2        1           0.000000000    0.000000000    0.000064781
 -------------------------------------------------------------------
 ***** Axes restored to original set *****
 Rotating derivatives, DoTrsp=F IDiff=-2 LEDeriv=    340 LFDPrp=       0 LDFDPr=       0.
 -------------------------------------------------------------------
 Center     Atomic                   Forces (Hartrees/Bohr)
 Number     Number              X              Y              Z
 -------------------------------------------------------------------
      1        1           0.000000000    0.000000000    0.000064781
      2        1          -0.000000000   -0.000000000   -0.000064781
 -------------------------------------------------------------------
 Cartesian Forces:  Max     0.000064781 RMS     0.000037401
 Z-matrix is all fixed cartesians, so copy forces.
 Force constants in Cartesian coordinates: 
                1             2             3             4             5 
      1 -0.449634D-04
      2  0.000000D+00 -0.449634D-04
      3  0.000000D+00  0.000000D+00  0.364118D+00
      4  0.449634D-04  0.000000D+00  0.000000D+00 -0.449634D-04
      5  0.000000D+00  0.449634D-04  0.000000D+00  0.000000D+00 -0.449634D-04
      6  0.000000D+00  0.000000D+00 -0.364118D+00  0.000000D+00  0.000000D+00
                6 
      6  0.364118D+00
 Final forces over variables, Energy=-1.17360207D+00:
  2.51359919D-17-2.51359919D-17 4.91357993D-19-4.91357993D-19
  6.47812314D-05-6.47812314D-05
 Leave Link  716 at Fri Aug 23 16:56:02 2019, MaxMem=  2684354560 cpu:         0.2
 (Enter /soft/gaussian/09-e.01/g09/l103.exe)

 GradGradGradGradGradGradGradGradGradGradGradGradGradGradGradGradGradGrad
 Berny optimization.
 Search for a local minimum.
 Step number   1 out of a maximum of    2
 All quantities printed in internal units (Hartrees-Bohrs-Radians)
 Second derivative matrix not updated -- analytic derivatives used.
 The second derivative matrix:
                          X1        Y1        Z1        X2        Y2
           X1          -0.00004
           Y1          -0.00000  -0.00004
           Z1           0.00000   0.00000   0.36412
           X2           0.00004   0.00000  -0.00000  -0.00004
           Y2           0.00000   0.00004  -0.00000  -0.00000  -0.00004
           Z2          -0.00000  -0.00000  -0.36412   0.00000   0.00000
                          Z2
           Z2           0.36412
 ITU=  0
     Eigenvalues ---    0.72824
 Angle between quadratic step and forces=   0.00 degrees.
 ClnCor:  largest displacement from symmetrization is 2.76D-20 for atom     2.
 Linear search not attempted -- first point.
 ClnCor:  largest displacement from symmetrization is 1.23D-32 for atom     2.
 B after Tr=    -0.000000    0.000000    0.000000
         Rot=    1.000000    0.000000    0.000000    0.000000 Ang=   0.00 deg.
 Variable       Old X    -DE/DX   Delta X   Delta X   Delta X     New X
                                 (Linear)    (Quad)   (Total)
    X1        0.00000   0.00000   0.00000   0.00000  -0.00000  -0.00000
    Y1        0.00000   0.00000   0.00000   0.00000   0.00000   0.00000
    Z1        0.71964   0.00006   0.00000   0.00009   0.00009   0.71973
    X2        0.00000  -0.00000   0.00000   0.00000   0.00000   0.00000
    Y2        0.00000  -0.00000   0.00000   0.00000   0.00000   0.00000
    Z2       -0.71964  -0.00006   0.00000  -0.00009  -0.00009  -0.71973
         Item               Value     Threshold  Converged?
 Maximum Force            0.000065     0.000450     YES
 RMS     Force            0.000037     0.000300     YES
 Maximum Displacement     0.000089     0.001800     YES
 RMS     Displacement     0.000051     0.001200     YES
 Predicted change in Energy=-5.762699D-09
 Optimization completed.
    -- Stationary point found.
 GradGradGradGradGradGradGradGradGradGradGradGradGradGradGradGradGradGrad

 Leave Link  103 at Fri Aug 23 16:56:02 2019, MaxMem=  2684354560 cpu:         0.1
 (Enter /soft/gaussian/09-e.01/g09/l9999.exe)

 Test job not archived.
 1\1\GINC-BLUESLOGIN2\Freq\RB3LYP\CC-pVDZ\H2\ELLIOTT\23-Aug-2019\0\\#P 
 b3lyp/cc-pvdz # SCF=(xqc) # Freq=() # IOp(7/33=1) # int=ultrafine\\com
 ment:\\0,1\H,0.,0.,0.380815\H,0.,0.,-0.380815\\Version=ES64L-G09RevE.0
 1\State=1-SGG\HF=-1.1736021\RMSD=1.130e-10\RMSF=3.740e-05\ZeroPoint=0.
 0099548\Thermal=0.0123153\Dipole=0.,0.,0.\DipoleDeriv=0.,0.,0.,0.,0.,0
 .,0.,0.,0.,0.,0.,0.,0.,0.,0.,0.,0.,0.\Polar=1.1905809,0.,1.1905809,0.,
 0.,6.7263307\PG=D*H [C*(H1.H1)]\NImag=0\\-0.00004496,0.,-0.00004496,0.
 ,0.,0.36411827,0.00004496,0.,0.,-0.00004496,0.,0.00004496,0.,0.,-0.000
 04496,0.,0.,-0.36411827,0.,0.,0.36411827\\0.,0.,-0.00006478,0.,0.,0.00
 006478\\\@


 THE RARE EARTHS PERPLEX US IN OUR RESEARCHES,
 BAFFLE US IN OUR SPECULATIONS, AND HAUNT US IN OUR
 VERY DREAMS.  THEY STRETCH LIKE AN UNKNOWN BEFORE US,
 MOCKING, MYSTIFYING, AND MURMURING STRANGE REVELATIONS
 AND POSSIBILITIES.  -- SIR WILLIAM CROOKE, 1832-1919
 Job cpu time:       0 days  0 hours  0 minutes 13.8 seconds.
 File lengths (MBytes):  RWF=    132 Int=      0 D2E=      0 Chk=      2 Scr=      2
 Normal termination of Gaussian 09 at Fri Aug 23 16:56:02 2019.
