[Molden Format]
[Molpro variables]
_NUMVAR=  691.0000000000000    
_EV2006= 0.3674930886769165E-01
_EV= 0.3674932534394180E-01
_KJOULE= 0.3808798324128737E-03
_KJOULE/MOL= 0.3808798324128737E-03
_CM= 0.4556335267302901E-05
_CM-1= 0.4556335267302901E-05
_KCAL= 0.1593601117815568E-02
_KCAL/MOL= 0.1593601117815568E-02
_KELVIN2006= 0.3166828861084835E-05
_KELVIN= 0.3166814820820034E-05
_HERTZ2006= 0.1519829850815779E-15
_HERTZ= 0.1519829846011223E-15
_HZ2006= 0.1519829850815779E-15
_HZ= 0.1519829846011223E-15
_TOA2006= 0.5291772490000000    
_TOA= 0.5291772090000000    
_TOANG2006= 0.5291772490000000    
_TOANG= 0.5291772090000000    
_TORAD= 0.1745329251994330E-01
_TOCM=  219474.6306700000    
_TODEBYE=  2.541580000000000    
_TOEV2006=  27.21139610000000    
_TOEV=  27.21138390000000    
_TOHERTZ2006=  6579683899900000.    
_TOHERTZ=  6579683920700000.    
_TOHZ2006=  6579683899900000.    
_TOHZ=  6579683920700000.    
_TOK2006=  315773.3000000000    
_TOK=  315774.7000000000    
_TOKCAL=  627.5096000000000    
_TOKELVIN2006=  315773.3000000000    
_TOKELVIN=  315774.7000000000    
_TOKJ=  2625.500000000000    
_TOKJOULE=  2625.500000000000    
_ANG2006=  1.889725988578923    
_ANG=  1.889726131421507    
_ANGSTROM2006=  1.889725988578923    
_ANGSTROM=  1.889726131421507    
_IGNORE_UNDEF=  2.000000000000000    
_STRICTCHECK=  0.000000000000000    
_SEW_ONEEL=  0.000000000000000    
_CPPDONE=FALSE
_DKROLL_DONE=  0.000000000000000    
_FOCKDONE=  0.000000000000000    
_GRADONE=FALSE
_HESSDONE=FALSE
_INTDONE=TRUE
_SCFDONE=FALSE
_MODUL_CUDA=FALSE
_MODUL_SLATER=FALSE
_MODUL_MRCC=FALSE
_MRCC_EXEC=
_FITC_AO_SAVED=FALSE
_FITC_MO_SAVED=FALSE
_SHARED_FS=TRUE
_LSTYP=SEWARD
_INTYP=INTS
_GEOMTYP=ZMAT
_GRADTYP=ALASKA
_DIRECT=FALSE
_SYNCM=  0.000000000000000    
_BASIS=CC-PVDZ
_ZORIENT=  1.000000000000000    
_NELEC=  16.00000000000000    
_SPIN=  0.000000000000000    
!SPIN=  0.000000000000000    
_QSDSTEP=  0.000000000000000    
_QSDIRC=  0.000000000000000    
_PROGRAM=RS2
_CPUSTEP= 0.5000000000000004E-01
_SYSSTEP= 0.2000000000000002E-01
_WALLSTEP=  1.370000000000000    
!DFMP2=  0.000000000000000    
!DFSCF=  0.000000000000000    
!SCSGRD=  0.000000000000000    
_BASINP=  610.0000000000000    
_CPUTOT=  1.960000000000000    
_DFTEXFAC=  1.000000000000000    
_DMX= 0.4085970269261046E-05
_DMY= 0.2017800633796261    
_DMZ= 0.2145799012932132    
_EMP2= -78.14156664158980    
_ENERGR= -77.89046252827038    
_ENERGU= -78.12466771048111    
_ENERGY= -78.14156664158980    
_ENUC=  30.19857686170086    
_GRADEXFAC=  9999.000000000000    
_GRADMETHOD=TRUE
!GRID_FREEZE= -1.000000000000000    
_ITERATIONS=  5.000000000000000    
_LASTNELEC=  2.000000000000000    
_LASTSPIN=  0.000000000000000    
_LASTSYM=  1.000000000000000    
_MPP_PROG=  1.000000000000000    
_NPROC_MPP=  4.000000000000000    
_NPROC_SMP=  1.000000000000000    
_NUMSTEP=  0.000000000000000    
_ORBITAL=  2142.200000000000    
_PI=  3.141592653589793    
!MCACT=  2.000000000000000    
!MCCLOSED=  7.000000000000000    
!MCFREEZE=  0.000000000000000    
!MCMS2=  0.000000000000000    
!MCNEL=  2.000000000000000    
!MCNSTSYM=  1.000000000000000    
!MCSTATE=  1.000000000000000    
!MCSYM=  1.000000000000000    
!MCWEIGHT=  1.000000000000000    
_SEIG_MIN= 0.4123304804584423E-02
_SEWPROP=TRUE
_STATUS=  1.000000000000000    
_SYSTOT= 0.3100000000000000    
_VERSION=  2010001.000000000    
_WALLTOT=  11.85000000000000    
_DATE=06-Sep-19
_LASTORB=MCSCF
_MACHINE=Linux-2.6.34-12-desktop/tt109(x86_64) 64 bit mpp version
_OUTPUT=/home/carlo/qm/combustion/barrierless/c2h4_c2h3_h/dist_3.2/molpro.xml
_PGROUP=C1
_TIME=02:47:18
_LIBMOL=/programs/molpro2010p/bin/../lib/
!SURFREC=  0.000000000000000    
!POLYREC=  0.000000000000000    
!DIPREC=  0.000000000000000    
!VSCFREC=  0.000000000000000    
!VCIREC=  0.000000000000000    
!PVCIREC=  0.000000000000000    
!VMP2REC=  0.000000000000000    
!VMCSCFREC=  0.000000000000000    
!GAREC=  0.000000000000000    
!SCFORB=  21002.00000000000    
!MCORB=  21422.00000000000    
!CIOCC=  9.000000000000000    
!CICORE=  2.000000000000000    
!CICLOS=  7.000000000000000    
!CIISTSYM=  1.000000000000000    
!CIISTMS2=  0.000000000000000    
!CIISTNEL=  12.00000000000000    
!NEWMOL=  0.000000000000000    
!NEWSYM=  0.000000000000000    
_SLFILES=slscratch
_NGSSTO=  9.000000000000000    
_SIN=SIN
_COS=COS
_TAN=TAN
_ACOS=ACOS
_ASIN=ASIN
_ATAN=ATAN
_COSH=COSH
_SINH=SINH
_TANH=TANH
_ABS=ABS
_MOD=MOD
_ERF=ERF
_REFC=REFC
_ERFC=ERFC
_HYPOT=HYPOT
_J0=J0
_J1=J1
_JN=JN
_GAMMA=GAMMA
_LGAMMA=LGAMMA
_Y0=Y0
_Y1=Y1
_YN=YN
_EXP=EXP
_LOG=LOG
_LOG10=LOG10
_SQRT=SQRT
_INT=INT
_NINT=NINT
_MAX=MAX
_MIN=MIN
_COSMO=  0.000000000000000    
_COSMOIT=  0.000000000000000    
_COSMOES=  0.000000000000000    
_COSMOEDS=  0.000000000000000    
_COSMOEC=  0.000000000000000    
_COSMOEDCORR=  0.000000000000000    
_FEPSI=  1.000000000000000    
_SL_IsMM=  0.000000000000000    
_SL_NSYM=  0.000000000000000    
_SL_System_BitSw=  0.000000000000000    
_SL_Unique_atoms=  0.000000000000000    
_SL_GRAD=  0.000000000000000    
_SL_MAXUPD_Hess=  5.000000000000000    
_SL_N_PRINT_COD=  5.000000000000000    
_SL_PRINT_CODES=  0.000000000000000    
_SL_BasType=  0.000000000000000    
_SL_Energy_Pred=  0.000000000000000    
_SL_New_Coords=  0.000000000000000    
_SL_Total_Nuclea=  0.000000000000000    
_SL_Highest_Mltp=  0.000000000000000    
_SL_Ref_Geom=  0.000000000000000    
!LATTICE= -1.000000000000000    
!NEWLATTICE=  0.000000000000000    
!LATGRAD_VAR=FALSE
!SEW_LATTICE=  1.000000000000000    
!LOCAL=  0.000000000000000    
!SAVEDOM= -1.000000000000000    
!RESTDOM= -1.000000000000000    
!SAVEDOM_HF= -1.000000000000000    
!RESTDOM_HF= -1.000000000000000    
!HESSREC=  0.000000000000000    
!FREQREC=  0.000000000000000    
!NMODREC=  0.000000000000000    
!GTASKS=  0.000000000000000    
!HTASKS=  0.000000000000000    
!THRCHG= 0.1000000000000000    
!DEBUG= -1.000000000000000    
!CFIT_CPHF=  0.000000000000000    
!RDOMAUX_CPHF=  3.000000000000000    
!THRAO_CPHF= 0.1000000000000000E-09
!THRMO_CPHF= 0.1000000000000000E-08
!THROV_CPHF= 0.1000000000000000E-11
!THRSW_CPHF= 0.1000000000000000E-09
!THRPROD_CPHF= 0.1000000000000000E-08
!THRAOPR_CPHF= 0.1000000000000000E-11
!CFIT_SCFGRD=  0.000000000000000    
!RDOMAUX_SCFGRD=  5.000000000000000    
!THRAO_SCFGRD= 0.1000000000000000E-09
!THRMO_SCFGRD= 0.1000000000000000E-08
!THROV_SCFGRD= 0.1000000000000000E-11
!THRSW_SCFGRD= 0.1000000000000000E-09
!THRPROD_SCFGRD= 0.1000000000000000E-08
!THRAOPR_SCFGRD= 0.1000000000000000E-11
!LOCFIT_SCF=  0.000000000000000    
!LOCFIT_MP2= -1.000000000000000    
_RIDOM=  0.000000000000000    
!CC2_METHOD=  0.000000000000000    
_BASIS2006=FALSE
_SVDDEL= -1.000000000000000    
_SVDDELA= -1.000000000000000    
_SVDDELP= -1.000000000000000    
_SVDDELF= -1.000000000000000    
_SVDDELS= -1.000000000000000    
_SVDDEL_ABS= -1.000000000000000    
_SVDDELA_ABS= -1.000000000000000    
_SVDDELP_ABS= -1.000000000000000    
_SVDDELF_ABS= -1.000000000000000    
_SVDDELS_ABS= -1.000000000000000    
_MAXBASIS=  0.000000000000000    
!OPT_CONICAL=  0.000000000000000    
!CLEARSP_JGRID=  0.000000000000000    
RCC1=  1.333252903458465    
RCC2=  1.099777684532992    
RCC3=  1.094704306509191    
RCH2=  1.091657137438683    
ACCC1=  120.9986443006108    
AHCC1=  121.8126242884984    
AHCC2=  119.0699608241714    
AHCC3=  135.9631009654800    
B1=  179.9999828085425    
B2=  180.0016276476521    
B3=  180.0002366009952    
RCH1=  3.200000000000000    
GX1= 0.1763535887586824E-05
GY1= 0.5634250381939514    
GZ1= -1.044221962719251    
GX2=-0.8356160226758294E-06
GY2=-0.3678859785649595    
GZ2=  1.296814907740713    
GX3=-0.4325281263306126E-04
GY3= 0.8917491979656511    
GZ3=  2.949860969078504    
GX4= 0.3827921481221292E-04
GY4= -2.404398900614845    
GZ4=  1.660269104231809    
GX5=-0.2278040218518871E-04
GY5= -3.261510063055331    
GZ5= -5.727978526934370    
GX6= 0.1669655065642699E-04
GY6=  2.444041261424681    
GZ6= -1.892146052648910    
CBSEN= -78.14156664158980    
[Atoms] Angs
C     1    6         0.0000009332        0.2981516892       -0.5525784638
C     2    6        -0.0000004422       -0.1946768754        0.6862448935
H     3    1        -0.0000228884        0.4718933517        1.5609991946
H     4    1         0.0000202565       -1.2723530996        0.8785765708
H     5    1        -0.0000120549       -1.7259167923       -3.0311156901
H     6    1         0.0000088354        1.2933309334       -1.0012805672
[GTO]
  1 0
 s    9  1.00
  0.6665000000D+04  0.6920001793D-03
  0.1000000000D+04  0.5329001381D-02
  0.2280000000D+03  0.2707700701D-01
  0.6471000000D+02  0.1017180264D+00
  0.2106000000D+02  0.2747400712D+00
  0.7495000000D+01  0.4485641162D+00
  0.2797000000D+01  0.2850740738D+00
  0.5215000000D+00  0.1520400394D-01
  0.1596000000D+00 -0.3191000827D-02
 s    9  1.00
  0.6665000000D+04 -0.1460000642D-03
  0.1000000000D+04 -0.1154000508D-02
  0.2280000000D+03 -0.5725002519D-02
  0.6471000000D+02 -0.2331201026D-01
  0.2106000000D+02 -0.6395502813D-01
  0.7495000000D+01 -0.1499810660D+00
  0.2797000000D+01 -0.1272620560D+00
  0.5215000000D+00  0.5445292395D+00
  0.1596000000D+00  0.5804962554D+00
 s    9  1.00
  0.6665000000D+04  0.0000000000D+00
  0.1000000000D+04  0.0000000000D+00
  0.2280000000D+03  0.0000000000D+00
  0.6471000000D+02  0.0000000000D+00
  0.2106000000D+02  0.0000000000D+00
  0.7495000000D+01  0.0000000000D+00
  0.2797000000D+01  0.0000000000D+00
  0.5215000000D+00  0.0000000000D+00
  0.1596000000D+00  0.1000000000D+01
 p    4  1.00
  0.9439000000D+01  0.3810902127D-01
  0.2002000000D+01  0.2094801169D+00
  0.5456000000D+00  0.5085572839D+00
  0.1517000000D+00  0.4688422617D+00
 p    4  1.00
  0.9439000000D+01  0.0000000000D+00
  0.2002000000D+01  0.0000000000D+00
  0.5456000000D+00  0.0000000000D+00
  0.1517000000D+00  0.1000000000D+01
 d    1  1.00
  0.5500000000D+00  0.1000000000D+01
  
  2 0
 s    9  1.00
  0.6665000000D+04  0.6920001793D-03
  0.1000000000D+04  0.5329001381D-02
  0.2280000000D+03  0.2707700701D-01
  0.6471000000D+02  0.1017180264D+00
  0.2106000000D+02  0.2747400712D+00
  0.7495000000D+01  0.4485641162D+00
  0.2797000000D+01  0.2850740738D+00
  0.5215000000D+00  0.1520400394D-01
  0.1596000000D+00 -0.3191000827D-02
 s    9  1.00
  0.6665000000D+04 -0.1460000642D-03
  0.1000000000D+04 -0.1154000508D-02
  0.2280000000D+03 -0.5725002519D-02
  0.6471000000D+02 -0.2331201026D-01
  0.2106000000D+02 -0.6395502813D-01
  0.7495000000D+01 -0.1499810660D+00
  0.2797000000D+01 -0.1272620560D+00
  0.5215000000D+00  0.5445292395D+00
  0.1596000000D+00  0.5804962554D+00
 s    9  1.00
  0.6665000000D+04  0.0000000000D+00
  0.1000000000D+04  0.0000000000D+00
  0.2280000000D+03  0.0000000000D+00
  0.6471000000D+02  0.0000000000D+00
  0.2106000000D+02  0.0000000000D+00
  0.7495000000D+01  0.0000000000D+00
  0.2797000000D+01  0.0000000000D+00
  0.5215000000D+00  0.0000000000D+00
  0.1596000000D+00  0.1000000000D+01
 p    4  1.00
  0.9439000000D+01  0.3810902127D-01
  0.2002000000D+01  0.2094801169D+00
  0.5456000000D+00  0.5085572839D+00
  0.1517000000D+00  0.4688422617D+00
 p    4  1.00
  0.9439000000D+01  0.0000000000D+00
  0.2002000000D+01  0.0000000000D+00
  0.5456000000D+00  0.0000000000D+00
  0.1517000000D+00  0.1000000000D+01
 d    1  1.00
  0.5500000000D+00  0.1000000000D+01
  
  3 0
 s    4  1.00
  0.1301000000D+02  0.1968498999D-01
  0.1962000000D+01  0.1379769298D+00
  0.4446000000D+00  0.4781477569D+00
  0.1220000000D+00  0.5012397451D+00
 s    4  1.00
  0.1301000000D+02  0.0000000000D+00
  0.1962000000D+01  0.0000000000D+00
  0.4446000000D+00  0.0000000000D+00
  0.1220000000D+00  0.1000000000D+01
 p    1  1.00
  0.7270000000D+00  0.1000000000D+01
  
  4 0
 s    4  1.00
  0.1301000000D+02  0.1968498999D-01
  0.1962000000D+01  0.1379769298D+00
  0.4446000000D+00  0.4781477569D+00
  0.1220000000D+00  0.5012397451D+00
 s    4  1.00
  0.1301000000D+02  0.0000000000D+00
  0.1962000000D+01  0.0000000000D+00
  0.4446000000D+00  0.0000000000D+00
  0.1220000000D+00  0.1000000000D+01
 p    1  1.00
  0.7270000000D+00  0.1000000000D+01
  
  5 0
 s    4  1.00
  0.1301000000D+02  0.1968498999D-01
  0.1962000000D+01  0.1379769298D+00
  0.4446000000D+00  0.4781477569D+00
  0.1220000000D+00  0.5012397451D+00
 s    4  1.00
  0.1301000000D+02  0.0000000000D+00
  0.1962000000D+01  0.0000000000D+00
  0.4446000000D+00  0.0000000000D+00
  0.1220000000D+00  0.1000000000D+01
 p    1  1.00
  0.7270000000D+00  0.1000000000D+01
  
  6 0
 s    4  1.00
  0.1301000000D+02  0.1968498999D-01
  0.1962000000D+01  0.1379769298D+00
  0.4446000000D+00  0.4781477569D+00
  0.1220000000D+00  0.5012397451D+00
 s    4  1.00
  0.1301000000D+02  0.0000000000D+00
  0.1962000000D+01  0.0000000000D+00
  0.4446000000D+00  0.0000000000D+00
  0.1220000000D+00  0.1000000000D+01
 p    1  1.00
  0.7270000000D+00  0.1000000000D+01
 
 
[MO]
 Sym=      1.1
 Ene=     -11.2626
 Spin= Alpha
 Occup=    2.000000
1 0.99915122051674
2 0.006218387317055
3 -0.006920706019592
4 0.000000003521614
5 0.001252385789665
6 0.000573486504229
7 -0.000000010246263
8 -0.000949161814616
9 -0.000947559055379
10 -0.000699371770891
11 0.000449953600628
12 0.000249418170263
13 0.000000009741358
14 -0.000000005121414
15 -0.001197604710785
16 0.060769235537282
17 -0.000881456904984
18 0.001935246181073
19 0.000000007080684
20 -0.000206961875812
21 0.000411636436215
22 -0.000000007770724
23 0.001137604645874
24 -0.001116473100057
25 0.000275280262387
26 0.000156077248875
27 -0.000431357511263
28 0.000000006037696
29 0.000000003088728
30 -0.000352627559478
31 0.000186644216960
32 0.000029684640432
33 0.000000007321651
34 -0.000197349076882
35 -0.000172676866822
36 0.000058538131188
37 0.000753655113527
38 -0.000000000283961
39 0.000029099978470
40 -0.000133483138358
41 -0.000215630223873
42 0.000156268690773
43 0.000000000017392
44 0.000006179192613
45 0.000010314661126
46 -0.001481016213850
47 0.002242549878823
48 0.000000006439649
49 0.000879772245046
50 -0.000036396830513
 Sym=      2.1
 Ene=     -11.2491
 Spin= Alpha
 Occup=    2.000000
1 -0.061802583129610
2 -0.001232706024463
3 0.003023175919064
4 0.000000000509133
5 -0.000047295040368
6 -0.000367320455187
7 -0.000000001958220
8 -0.000555194338131
9 0.001165746487769
10 0.000346525601839
11 -0.000166216799640
12 -0.000180308802199
13 0.000000005482844
14 0.000000004812998
15 0.000188091563700
16 0.99950389277583
17 0.008078522760394
18 -0.009202028351882
19 -0.000000014353589
20 -0.000056231002642
21 0.000049309576795
22 0.000000009411024
23 -0.000129972590516
24 0.000568245994644
25 -0.000751541272878
26 0.000280300992358
27 0.000471240280520
28 -0.000000023134585
29 -0.000000013158413
30 -0.000081517518441
31 -0.000558247494304
32 0.001456486207544
33 -0.000000010997440
34 0.000382981274344
35 0.000378440953047
36 -0.000557881849832
37 0.001501277497177
38 0.000000011031900
39 -0.000531128870938
40 0.000025326809168
41 0.000036408116219
42 -0.000034307500293
43 -0.000000000033678
44 0.000000590901379
45 -0.000005667670421
46 0.000237839737777
47 0.000091637096576
48 -0.000000003713571
49 -0.000171509473741
50 0.000056817040946
 Sym=      3.1
 Ene=      -1.0201
 Spin= Alpha
 Occup=    2.000000
1 -0.017348414171506
2 0.56601290623527
3 -0.12521534866670
4 -0.000000520954915
5 -0.037963365610015
6 0.22530932565096
7 -0.000000107266602
8 0.010062288142996
9 -0.058489093274012
10 -0.010033881309381
11 -0.008052350827065
12 0.018086232136446
13 0.000000071433016
14 -0.000000007608911
15 -0.014192354822526
16 -0.023288703489492
17 0.65513213048889
18 -0.18722423637465
19 0.000000266493325
20 0.070672717969581
21 -0.16090828463340
22 -0.000000132127805
23 -0.024328873781680
24 0.067139003809472
25 -0.006915736890254
26 -0.006463922035584
27 0.013379658925837
28 0.000000107285599
29 0.000000013982852
30 -0.012783012792689
31 0.20950121376064
32 -0.10282982068430
33 0.000000394396340
34 -0.010656136663856
35 -0.017441020274359
36 0.21291025213913
37 -0.096968960377967
38 -0.000000363789588
39 0.019367079721128
40 -0.005593566943897
41 -0.001385032453809
42 -0.001880293738790
43 0.000000001457922
44 0.000132420255716
45 0.000181798001935
46 0.16719897235437
47 -0.072317739870640
48 -0.000000118882549
49 -0.012216840594731
50 0.008919737917581
 Sym=      4.1
 Ene=      -0.7639
 Spin= Alpha
 Occup=    2.000000
1 -0.010627177202381
2 0.52074725860912
3 -0.093701424231239
4 0.000000570613087
5 0.23911174248281
6 -0.10468029130082
7 -0.000000556751040
8 -0.056118540726469
9 0.024719530278741
10 -0.003027195805379
11 0.008653940849501
12 -0.005626745044122
13 0.000000073637902
14 -0.000000043888463
15 -0.002237420773147
16 0.010558128746214
17 -0.38686951877746
18 0.062670696417225
19 -0.000000039912201
20 0.15875471813261
21 -0.25177964636270
22 0.000000007504975
23 -0.035015831987479
24 0.056124083995926
25 0.001379816986087
26 -0.007343458918475
27 0.005963641932388
28 0.000000359127670
29 0.000000128954133
30 -0.013060664055949
31 -0.28611381887759
32 0.10209483669513
33 -0.000000408453847
34 0.014159490885419
35 0.011495955282645
36 -0.34720309312982
37 0.13760189210564
38 0.000000489843575
39 -0.022096853213606
40 -0.000691254403159
41 -0.002100286766984
42 -0.002777886409116
43 0.000000001618820
44 0.000200538544980
45 0.000175886478720
46 0.48577298750410
47 -0.18152010342524
48 -0.000000286905063
49 -0.026107233577383
50 0.012097854179898
 Sym=      5.1
 Ene=      -0.6158
 Spin= Alpha
 Occup=    2.000000
1 -0.002509066478023
2 -0.10623494591650
3 0.057016233887953
4 0.000000737770487
5 0.37731862103742
6 -0.33568477800638
7 -0.000000092479960
8 -0.10107926784127
9 0.089476890261694
10 -0.000673769604693
11 0.008255917863112
12 -0.007582148258419
13 0.000000083119979
14 -0.000000220809970
15 0.009009738162484
16 -0.002585623285284
17 0.011549141651507
18 0.019020076915401
19 -0.000007071837851
20 0.14084695168120
21 0.57202161058501
22 0.000001590784598
23 -0.023109638163009
24 -0.12518057902218
25 -0.001258815363038
26 0.009818136790572
27 -0.008559321427534
28 -0.000000308998162
29 -0.000000425258258
30 0.015215139559194
31 0.52545370673612
32 -0.15676137398513
33 0.000000517306955
34 -0.016578947060952
35 -0.013859196810645
36 -0.025422678071000
37 0.012007964613598
38 -0.000000082413217
39 0.000544146436363
40 0.009727328564665
41 0.003233590391768
42 0.002521779684459
43 0.000000000141204
44 0.000097066409431
45 -0.000144415512656
46 0.37789996117205
47 -0.11509796534781
48 -0.000000184009225
49 -0.014861097409150
50 0.002939396631836
 Sym=      6.1
 Ene=      -0.5759
 Spin= Alpha
 Occup=    2.000000
1 0.002039667945082
2 -0.030299857180310
3 -0.028559077903172
4 -0.000004755549035
5 -0.15084407170391
6 0.30805008880926
7 0.000001241431533
8 0.032729281282548
9 -0.088895915719266
10 0.002231793057278
11 -0.022595096095771
12 0.020363303038493
13 0.000000091154029
14 -0.000000417773755
15 0.016935808274034
16 0.000774083242123
17 0.031402247671138
18 -0.009773562264352
19 -0.000012881677750
20 0.60632371143380
21 -0.074595807999593
22 0.000002634979892
23 -0.11989490007785
24 0.013103654010729
25 -0.000306736261969
26 -0.019951844447203
27 0.020258580709172
28 0.000000221037833
29 -0.000000195964555
30 0.009692239238016
31 0.33362982812243
32 -0.084887300853283
33 0.000000120317773
34 0.000779723525414
35 -0.015424137097765
36 -0.59716148447558
37 0.16472880126352
38 0.000000362333376
39 -0.020582005258681
40 0.004911619562936
41 0.005220344920912
42 0.004606793983721
43 -0.000000003062280
44 -0.000140576438627
45 -0.000149826289352
46 -0.30187161538838
47 0.072645050556283
48 0.000000002787293
49 0.008733075193965
50 -0.001349130162245
 Sym=      7.1
 Ene=      -0.3817
 Spin= Alpha
 Occup=    2.000000
1 0.000000090601965
2 -0.000005305033478
3 -0.000002048337355
4 0.57457995070159
5 0.000006781179196
6 0.000011124980538
7 0.010277432288479
8 -0.000000396201910
9 -0.000000211395646
10 -0.000000110223037
11 -0.000000568771505
12 0.000000678994542
13 -0.008180670821500
14 0.034202257582978
15 0.000000616516650
16 0.000000093951580
17 0.000002676279465
18 -0.000000907327768
19 0.58497001833820
20 0.000013855476029
21 0.000001884067676
22 0.024691364798788
23 0.000000156715246
24 0.000001319762245
25 -0.000000024530368
26 0.000000251336610
27 -0.000000226806242
28 0.012778423798546
29 -0.030588000996023
30 -0.000000302847515
31 -0.000000110457485
32 -0.000000009791240
33 0.013475695248560
34 0.000000373316541
35 0.000000124523093
36 -0.000001876105638
37 -0.000000278777700
38 0.013349208694673
39 0.000000280402142
40 0.000000052966104
41 -0.000000179093168
42 -0.000000161367688
43 0.000540092869148
44 -0.000000044846258
45 -0.000000060704245
46 0.000000840426791
47 -0.000000826896507
48 0.014163193377878
49 -0.000000154541735
50 0.000000354068373
 Sym=      8.1
 Ene=      -0.1996
 Spin= Alpha
 Occup=    1.220650
1 0.001462996492112
2 0.22722425456040
3 0.076528945287178
4 0.000011799038477
5 -0.41021513701841
6 -0.41444228371603
7 0.000001040892753
8 -0.018693910254799
9 -0.018693687502568
10 -0.000413371437894
11 -0.003497454078879
12 0.003910825516773
13 -0.000000451850951
14 -0.000000199509865
15 0.018535607165715
16 -0.001926248466018
17 -0.080872898052613
18 0.028988081749981
19 0.000002540650812
20 0.004636337860104
21 0.099097826065586
22 -0.000000110094765
23 0.046149573360217
24 -0.013558609980154
25 0.000423945006198
26 -0.016335421482471
27 0.015911476476273
28 0.000000235715881
29 -0.000000689061789
30 0.021019373001192
31 0.12683858390982
32 0.009396637756127
33 0.000000096679358
34 -0.000440694794784
35 0.000493891914653
36 -0.094717060309734
37 0.017112003396394
38 0.000000062661686
39 0.000161167725823
40 0.002777842644458
41 0.67123997139938
42 0.024676229935275
43 0.000000023533768
44 0.000440737436447
45 0.000374659743952
46 -0.15041985059388
47 0.019802379728368
48 0.000000303438747
49 -0.004506714476149
50 -0.010512993706391
 Sym=      9.1
 Ene=      -0.1121
 Spin= Alpha
 Occup=    0.779350
1 -0.001703431035067
2 -0.25546294250362
3 -0.098879586558722
4 -0.000011976282199
5 0.44515702778958
6 0.45545234037596
7 -0.000000902521255
8 0.028280581367123
9 0.011954636966977
10 0.002395658983729
11 0.002909735719264
12 -0.005305394702993
13 0.000000561175549
14 0.000000391942590
15 -0.021855306978806
16 0.001262571768395
17 0.080712507657108
18 -0.016772108140474
19 -0.000001195637520
20 -0.005404926616817
21 -0.10860317480698
22 0.000000432069178
23 -0.054851698487770
24 0.000785675358760
25 -0.001170045151415
26 0.017565039234719
27 -0.016394994083304
28 -0.000000239845825
29 0.000000698547950
30 -0.022398531918877
31 -0.13613400419862
32 -0.002232294533843
33 -0.000000067614685
34 0.000414229328317
35 0.000072835585343
36 0.096191728625515
37 -0.015732676621408
38 -0.000000029910897
39 -0.000242224410494
40 -0.003123730278998
41 0.74784732709876
42 -0.026719692316074
43 -0.000000001857728
44 -0.001048110802135
45 -0.001470348724971
46 0.15313019015345
47 -0.021162853352070
48 -0.000000297797945
49 0.004466159276299
50 0.010693252224745
 Sym=     10.1
 Ene=       0.1663
 Spin= Alpha
 Occup=    0.000000
1 0.000000930990812
2 -0.000005317625900
3 -0.000017575367395
4 0.53808588841401
5 -0.000001420310641
6 0.000007707429092
7 0.49652647914905
8 -0.000006778281929
9 0.000012624675217
10 -0.000000125083424
11 0.000000205723472
12 -0.000000080640049
13 0.016483160369441
14 -0.017317420168250
15 -0.000000596008963
16 0.000000143984438
17 0.000004459013382
18 -0.000003231045802
19 -0.51013052069117
20 -0.000012033650121
21 -0.000008261656990
22 -0.50497991523026
23 -0.000014488191937
24 -0.000000095809397
25 0.000000093873660
26 0.000000007576860
27 -0.000000101450520
28 0.009513148717683
29 -0.025413411038209
30 0.000000289147230
31 0.000003306978916
32 0.000002566673888
33 -0.018316636908094
34 -0.000000315202632
35 -0.000000149731860
36 -0.000004210178876
37 -0.000013954201450
38 -0.018567962306339
39 -0.000000486613573
40 -0.000000455452391
41 0.000001618355010
42 -0.000000325878280
43 0.002300703455999
44 -0.000000153726158
45 -0.000000161983762
46 0.000010400263937
47 0.000024825393642
48 0.023841922828626
49 -0.000000225026097
50 0.000000195177022
 Sym=     11.1
 Ene=       0.2096
 Spin= Alpha
 Occup=    0.000000
1 -0.020201577715111
2 0.072871513708235
3 0.72569597644254
4 0.000003056361362
5 0.14821139104085
6 -0.11011412079626
7 0.000006433094270
8 0.35411399723549
9 -0.21607582677046
10 -0.005323601014553
11 0.008055931484705
12 -0.002732330470152
13 0.000000552379759
14 -0.000000072337657
15 -0.012078068617016
16 -0.059090417847248
17 0.14509790364711
18 1.67077046770279
19 -0.000003959790892
20 -0.016037790131271
21 0.25128314248225
22 -0.000007233112183
23 -0.15247244486610
24 0.48048826423222
25 -0.020577346433003
26 0.019241720226282
27 0.001335626206721
28 -0.000001017010831
29 -0.000000498504546
30 0.001203030788012
31 -0.031132606873996
32 -1.38307052806214
33 -0.000000429794657
34 0.010178335620537
35 0.015962725917636
36 -0.034437459673675
37 -0.99843229831082
38 0.000000297427059
39 -0.017156914885427
40 0.004984291995680
41 0.062335769215160
42 -0.041256749379999
43 -0.000000008949406
44 -0.000343581274708
45 -0.003468116968143
46 0.028686889147435
47 -1.02004328085220
48 0.000000267014029
49 0.009761434958987
50 -0.012975766239939
 Sym=     12.1
 Ene=       0.2225
 Spin= Alpha
 Occup=    0.000000
1 -0.039684669575416
2 0.15596795602609
3 1.05610681589894
4 0.000009608309594
5 0.26050641619686
6 -0.045425575874042
7 0.000016803683398
8 0.55283242248541
9 -0.28329128533086
10 -0.010806360278313
11 0.019773816333628
12 -0.008967456055315
13 0.000000383666658
14 -0.000000458555490
15 -0.000426030587622
16 0.028699072317878
17 -0.16606428512918
18 -0.74450757150118
19 -0.000011346279913
20 0.18586383577083
21 0.027606937930658
22 -0.000020523331431
23 0.34278884342609
24 -0.16156159241855
25 0.010857502332890
26 -0.003701591785131
27 -0.007155910547760
28 0.000000528607252
29 -0.000000214166671
30 -0.014846265322304
31 -0.009301701083415
32 0.11098433061746
33 -0.000000159855716
34 -0.006295753095783
35 -0.002175205550216
36 0.064672548523265
37 1.28654652849588
38 -0.000000532022846
39 0.014668014547468
40 0.002905634737273
41 0.000483668942940
42 0.010854633941470
43 0.000000064358820
44 -0.001755192810611
45 0.000145110694724
46 -0.088835272335653
47 -1.72465682663585
48 0.000000529823232
49 0.022123684248107
50 -0.003911062245438
 Sym=     13.1
 Ene=       0.2689
 Spin= Alpha
 Occup=    0.000000
1 0.022357834290621
2 -0.071217693234214
3 -0.78650796736316
4 -0.000001514992768
5 -0.080142152631613
6 0.033867644562561
7 0.000007160067667
8 -0.75225339776456
9 -0.077467532682417
10 0.017264893549033
11 -0.025186169631980
12 0.007921276082947
13 -0.000000164899486
14 0.000000024648336
15 0.016787445720480
16 -0.011133988802567
17 0.015043105531113
18 0.20377185186086
19 -0.000010035424667
20 0.37931702624809
21 0.14969786379032
22 -0.000029196283781
23 1.34880571526214
24 0.45648618330197
25 -0.005171462205807
26 -0.014171230020242
27 0.019342692226049
28 0.000000096620920
29 -0.000000566251863
30 0.021698040179459
31 0.013387037057274
32 -1.94054801664883
33 -0.000000497686130
34 0.011994868638616
35 0.023922615131350
36 -0.029967367876693
37 1.72646925163796
38 -0.000000415985560
39 0.020434088573288
40 -0.010626437238151
41 -0.10774469194889
42 0.055700682848961
43 0.000000105883933
44 0.005910336931339
45 0.008980683989456
46 -0.062762738966212
47 1.14551572417555
48 -0.000000103292528
49 -0.018056914456178
50 0.010554411787512
 Sym=     14.1
 Ene=       0.4559
 Spin= Alpha
 Occup=    0.000000
1 -0.043714939481095
2 0.18520681825976
3 3.68914450881191
4 -0.000003548548925
5 -0.24127991065142
6 0.16490409295187
7 -0.000004193077471
8 -1.26492435758412
9 2.66181923058716
10 -0.030701025853319
11 -0.022964521516812
12 0.053665547370131
13 0.000000791831739
14 -0.000000122805483
15 -0.043286715333245
16 0.080436850954718
17 0.057187456131201
18 -3.63030252718598
19 -0.000002816319916
20 -0.015905283040143
21 0.090937893605279
22 -0.000002068462702
23 -1.05762146177507
24 3.19085148474288
25 0.055662351935719
26 -0.035040424132601
27 -0.020621927803118
28 0.000001949243867
29 0.000000934580638
30 0.026125093384810
31 -0.22111252698677
32 -0.67243918183316
33 0.000000305181773
34 -0.012354264208243
35 0.003821232209575
36 -0.27252108476988
37 -0.23812774835308
38 -0.000000621485606
39 0.021209988777272
40 0.008389750008097
41 0.19272488612396
42 -0.15706687616641
43 -0.000000083503483
44 -0.013057208400748
45 -0.005509100688689
46 -0.084629224114626
47 1.16363354948792
48 0.000000147265305
49 0.016113664888106
50 -0.000089060203636
 Sym=     15.1
 Ene=       0.5940
 Spin= Alpha
 Occup=    0.000000
1 -0.17762026622859
2 -0.56514467857785
3 0.95355227081156
4 0.000001703989172
5 0.12556234731903
6 -0.47237221912199
7 0.000002412499524
8 -0.48212779988472
9 1.30146433703690
10 0.085659170825514
11 -0.062037699243975
12 -0.023621471581539
13 -0.000001006772452
14 -0.000000094797102
15 0.12937029562988
16 -0.10868217708642
17 -0.55972559003277
18 -0.34106890264761
19 -0.000003918223251
20 -0.33136529562260
21 0.66724760795943
22 -0.000006196797544
23 0.49328464973360
24 -0.47944717646094
25 0.027624244009461
26 0.014804057488495
27 -0.042428301497956
28 0.000000639919934
29 0.000000934293501
30 -0.022331979469147
31 -0.23994038076497
32 0.062822497031671
33 -0.000000010108617
34 0.003778162178119
35 -0.050158583231819
36 0.53105453755597
37 -0.41978809721525
38 -0.000000869824787
39 0.016918479550389
40 0.007679944161131
41 -0.088938550081402
42 0.12666683621701
43 -0.000000027653496
44 -0.009840781291808
45 -0.005151395696418
46 -0.76179610178735
47 1.03642527421680
48 0.000000062255773
49 -0.072756125461720
50 0.082396552550123
 Sym=     16.1
 Ene=       0.6168
 Spin= Alpha
 Occup=    0.000000
1 0.035211402329136
2 0.13976015780608
3 -0.24799937840250
4 -0.000010420826400
5 -0.21827448704718
6 -0.51874452021799
7 -0.000000797153289
8 -0.14892241284146
9 1.11877348360641