 Entering Gaussian System, Link 0=g09
 Input=run.inp
 Output=run.out
 Initial command:
 /soft/gaussian/09-e.01/g09/l1.exe "/blues/gpfs/home/elliott/Packages/PACC/moldriver/rcdriver/tmprundir/SPC/CH3/WCYWZMWISLQXQU/0/2/UHFFFAOYSA-N/ezvN4wU/RUN/HESS/A00/Gau-141527.inp" -scrdir="/blues/gpfs/home/elliott/Packages/PACC/moldriver/rcdriver/tmprundir/SPC/CH3/WCYWZMWISLQXQU/0/2/UHFFFAOYSA-N/ezvN4wU/RUN/HESS/A00/"
 Entering Link 1 = /soft/gaussian/09-e.01/g09/l1.exe PID=    141528.
  
 Copyright (c) 1988,1990,1992,1993,1995,1998,2003,2009,2015,
            Gaussian, Inc.  All Rights Reserved.
  
 This is part of the Gaussian(R) 09 program.  It is based on
 the Gaussian(R) 03 system (copyright 2003, Gaussian, Inc.),
 the Gaussian(R) 98 system (copyright 1998, Gaussian, Inc.),
 the Gaussian(R) 94 system (copyright 1995, Gaussian, Inc.),
 the Gaussian 92(TM) system (copyright 1992, Gaussian, Inc.),
 the Gaussian 90(TM) system (copyright 1990, Gaussian, Inc.),
 the Gaussian 88(TM) system (copyright 1988, Gaussian, Inc.),
 the Gaussian 86(TM) system (copyright 1986, Carnegie Mellon
 University), and the Gaussian 82(TM) system (copyright 1983,
 Carnegie Mellon University). Gaussian is a federally registered
 trademark of Gaussian, Inc.
  
 This software contains proprietary and confidential information,
 including trade secrets, belonging to Gaussian, Inc.
  
 This software is provided under written license and may be
 used, copied, transmitted, or stored only in accord with that
 written license.
  
 The following legend is applicable only to US Government
 contracts under FAR:
  
                    RESTRICTED RIGHTS LEGEND
  
 Use, reproduction and disclosure by the US Government is
 subject to restrictions as set forth in subparagraphs (a)
 and (c) of the Commercial Computer Software - Restricted
 Rights clause in FAR 52.227-19.
  
 Gaussian, Inc.
 340 Quinnipiac St., Bldg. 40, Wallingford CT 06492
  
  
 ---------------------------------------------------------------
 Warning -- This program may not be used in any manner that
 competes with the business of Gaussian, Inc. or will provide
 assistance to any competitor of Gaussian, Inc.  The licensee
 of this program is prohibited from giving any competitor of
 Gaussian, Inc. access to this program.  By using this program,
 the user acknowledges that Gaussian, Inc. is engaged in the
 business of creating and licensing software in the field of
 computational chemistry and represents and warrants to the
 licensee that it is not a competitor of Gaussian, Inc. and that
 it will not use this program in any manner prohibited above.
 ---------------------------------------------------------------
  

 Cite this work as:
 Gaussian 09, Revision E.01,
 M. J. Frisch, G. W. Trucks, H. B. Schlegel, G. E. Scuseria, 
 M. A. Robb, J. R. Cheeseman, G. Scalmani, V. Barone, B. Mennucci, 
 G. A. Petersson, H. Nakatsuji, M. Caricato, X. Li, H. P. Hratchian, 
 A. F. Izmaylov, J. Bloino, G. Zheng, J. L. Sonnenberg, M. Hada, 
 M. Ehara, K. Toyota, R. Fukuda, J. Hasegawa, M. Ishida, T. Nakajima, 
 Y. Honda, O. Kitao, H. Nakai, T. Vreven, J. A. Montgomery, Jr., 
 J. E. Peralta, F. Ogliaro, M. Bearpark, J. J. Heyd, E. Brothers, 
 K. N. Kudin, V. N. Staroverov, T. Keith, R. Kobayashi, J. Normand, 
 K. Raghavachari, A. Rendell, J. C. Burant, S. S. Iyengar, J. Tomasi, 
 M. Cossi, N. Rega, J. M. Millam, M. Klene, J. E. Knox, J. B. Cross, 
 V. Bakken, C. Adamo, J. Jaramillo, R. Gomperts, R. E. Stratmann, 
 O. Yazyev, A. J. Austin, R. Cammi, C. Pomelli, J. W. Ochterski, 
 R. L. Martin, K. Morokuma, V. G. Zakrzewski, G. A. Voth, 
 P. Salvador, J. J. Dannenberg, S. Dapprich, A. D. Daniels, 
 O. Farkas, J. B. Foresman, J. V. Ortiz, J. Cioslowski, 
 and D. J. Fox, Gaussian, Inc., Wallingford CT, 2013.
 
 ******************************************
 Gaussian 09:  ES64L-G09RevE.01 30-Nov-2015
                 5-Sep-2019 
 ******************************************
 %mem=20GB
 %NProcShared=10
 Will use up to   10 processors via shared memory.
 --------------------------------------------------------------------
 #P b3lyp/cc-pvdz # SCF=(xqc) # Freq=() # IOp(7/33=1) # int=ultrafine
 --------------------------------------------------------------------
 1/10=4,30=1,38=1/1,3;
 2/12=2,17=6,18=5,40=1/2;
 3/5=16,11=2,16=1,25=1,30=1,71=2,74=-5,75=-5,140=1/1,2,3;
 4//1;
 5/5=2,8=3,13=1,38=5,98=1/2,8;
 8/6=4,10=90,11=11/1;
 11/6=1,8=1,9=11,15=111,16=1/1,2,10;
 10/6=1/2;
 6/7=2,8=2,9=2,10=2,18=1,28=1/1;
 7/8=1,10=1,25=1,33=1/1,2,3,16;
 1/10=4,30=1/3;
 99//99;
 Leave Link    1 at Thu Sep  5 22:26:48 2019, MaxMem=  2684354560 cpu:         0.9
 (Enter /soft/gaussian/09-e.01/g09/l101.exe)
 --------
 comment:
 --------
 Symbolic Z-matrix:
 Charge =  0 Multiplicity = 2
 C                     0.        0.        0. 
 H                     0.        1.09118   0. 
 H                     0.94499  -0.54559   0. 
 H                    -0.94499  -0.54559   0. 
 
 NAtoms=      4 NQM=        4 NQMF=       0 NMMI=      0 NMMIF=      0
                NMic=       0 NMicF=      0.
                    Isotopes and Nuclear Properties:
 (Nuclear quadrupole moments (NQMom) in fm**2, nuclear magnetic moments (NMagM)
  in nuclear magnetons)

  Atom         1           2           3           4
 IAtWgt=          12           1           1           1
 AtmWgt=  12.0000000   1.0078250   1.0078250   1.0078250
 NucSpn=           0           1           1           1
 AtZEff=   0.0000000   0.0000000   0.0000000   0.0000000
 NQMom=    0.0000000   0.0000000   0.0000000   0.0000000
 NMagM=    0.0000000   2.7928460   2.7928460   2.7928460
 AtZNuc=   6.0000000   1.0000000   1.0000000   1.0000000
 Leave Link  101 at Thu Sep  5 22:26:48 2019, MaxMem=  2684354560 cpu:         0.5
 (Enter /soft/gaussian/09-e.01/g09/l103.exe)

 GradGradGradGradGradGradGradGradGradGradGradGradGradGradGradGradGradGrad
 Berny optimization.
 Initialization pass.
 Trust Radius=3.00D-01 FncErr=1.00D-07 GrdErr=1.00D-07
 Number of steps in this run=      2 maximum allowed number of steps=      2.
 GradGradGradGradGradGradGradGradGradGradGradGradGradGradGradGradGradGrad

 Leave Link  103 at Thu Sep  5 22:26:48 2019, MaxMem=  2684354560 cpu:         0.1
 (Enter /soft/gaussian/09-e.01/g09/l202.exe)
                          Input orientation:                          
 ---------------------------------------------------------------------
 Center     Atomic      Atomic             Coordinates (Angstroms)
 Number     Number       Type             X           Y           Z
 ---------------------------------------------------------------------
      1          6           0        0.000000    0.000000    0.000000
      2          1           0        0.000000    1.091180    0.000000
      3          1           0        0.944989   -0.545590    0.000000
      4          1           0       -0.944989   -0.545590    0.000000
 ---------------------------------------------------------------------
                    Distance matrix (angstroms):
                    1          2          3          4
     1  C    0.000000
     2  H    1.091180   0.000000
     3  H    1.091179   1.889979   0.000000
     4  H    1.091179   1.889979   1.889978   0.000000
 Stoichiometry    CH3(2)
 Framework group  D3H[O(C),3C2(H)]
 Deg. of freedom     1
 Full point group                 D3H     NOp  12
 Largest Abelian subgroup         C2V     NOp   4
 Largest concise Abelian subgroup C2      NOp   2
                         Standard orientation:                         
 ---------------------------------------------------------------------
 Center     Atomic      Atomic             Coordinates (Angstroms)
 Number     Number       Type             X           Y           Z
 ---------------------------------------------------------------------
      1          6           0        0.000000    0.000000    0.000000
      2          1           0       -0.000000    1.091180    0.000000
      3          1           0       -0.944990   -0.545590    0.000000
      4          1           0        0.944990   -0.545590    0.000000
 ---------------------------------------------------------------------
 Rotational constants (GHZ):    280.7682527    280.7682527    140.3841263
 Leave Link  202 at Thu Sep  5 22:26:48 2019, MaxMem=  2684354560 cpu:         0.2
 (Enter /soft/gaussian/09-e.01/g09/l301.exe)
 Standard basis: CC-pVDZ (5D, 7F)
 Ernie: Thresh=  0.10000D-02 Tol=  0.10000D-05 Strict=F.
 Ernie:  2 primitive shells out of 37 were deleted.
 There are    15 symmetry adapted cartesian basis functions of A1  symmetry.
 There are     2 symmetry adapted cartesian basis functions of A2  symmetry.
 There are     8 symmetry adapted cartesian basis functions of B1  symmetry.
 There are     5 symmetry adapted cartesian basis functions of B2  symmetry.
 There are    14 symmetry adapted basis functions of A1  symmetry.
 There are     2 symmetry adapted basis functions of A2  symmetry.
 There are     8 symmetry adapted basis functions of B1  symmetry.
 There are     5 symmetry adapted basis functions of B2  symmetry.
    29 basis functions,    54 primitive gaussians,    30 cartesian basis functions
     5 alpha electrons        4 beta electrons
       nuclear repulsion energy         9.5692292437 Hartrees.
 IExCor=  402 DFT=T Ex+Corr=B3LYP ExCW=0 ScaHFX=  0.200000
 ScaDFX=  0.800000  0.720000  1.000000  0.810000 ScalE2=  1.000000  1.000000
 IRadAn=      5 IRanWt=     -1 IRanGd=            0 ICorTp=0 IEmpDi=  4
 NAtoms=    4 NActive=    4 NUniq=    2 SFac= 4.00D+00 NAtFMM=   60 NAOKFM=F Big=F
 Integral buffers will be    131072 words long.
 Raffenetti 2 integral format.
 Two-electron integral symmetry is turned on.
 Leave Link  301 at Thu Sep  5 22:26:48 2019, MaxMem=  2684354560 cpu:         0.6
 (Enter /soft/gaussian/09-e.01/g09/l302.exe)
 NPDir=0 NMtPBC=     1 NCelOv=     1 NCel=       1 NClECP=     1 NCelD=      1
         NCelK=      1 NCelE2=     1 NClLst=     1 CellRange=     0.0.
 One-electron integrals computed using PRISM.
 One-electron integral symmetry used in STVInt
 NBasis=    29 RedAO= T EigKep=  4.83D-02  NBF=    14     2     8     5
 NBsUse=    29 1.00D-06 EigRej= -1.00D+00 NBFU=    14     2     8     5
 Precomputing XC quadrature grid using
 IXCGrd= 4 IRadAn=           5 IRanWt=          -1 IRanGd=           0 AccXCQ= 0.00D+00.
 Generated NRdTot=       0 NPtTot=           0 NUsed=           0 NTot=          32
 NSgBfM=    30    30    30    30    30 MxSgAt=     4 MxSgA2=     4.
 Leave Link  302 at Thu Sep  5 22:26:48 2019, MaxMem=  2684354560 cpu:         1.8
 (Enter /soft/gaussian/09-e.01/g09/l303.exe)
 DipDrv:  MaxL=1.
 Leave Link  303 at Thu Sep  5 22:26:48 2019, MaxMem=  2684354560 cpu:         0.3
 (Enter /soft/gaussian/09-e.01/g09/l401.exe)
 ExpMin= 1.22D-01 ExpMax= 6.67D+03 ExpMxC= 2.28D+02 IAcc=3 IRadAn=         5 AccDes= 0.00D+00
 Harris functional with IExCor=  402 and IRadAn=       5 diagonalized for initial guess.
 HarFok:  IExCor=  402 AccDes= 0.00D+00 IRadAn=         5 IDoV= 1 UseB2=F ITyADJ=14
 ICtDFT=  3500011 ScaDFX=  1.000000  1.000000  1.000000  1.000000
 FoFCou: FMM=F IPFlag=           0 FMFlag=      100000 FMFlg1=           0
         NFxFlg=           0 DoJE=T BraDBF=F KetDBF=T FulRan=T
         wScrn=  0.000000 ICntrl=     500 IOpCl=  0 I1Cent=   200000004 NGrid=           0
         NMat0=    1 NMatS0=      1 NMatT0=    0 NMatD0=    1 NMtDS0=    0 NMtDT0=    0
 Petite list used in FoFCou.
 Harris En= -39.8272596110312    
 JPrj=0 DoOrth=F DoCkMO=F.
 Initial guess orbital symmetries:
 Alpha Orbitals:
       Occupied  (A1') (A1') (E') (E') (A2")
       Virtual   (A1') (E') (E') (E') (E') (A1') (A2") (E') (E')
                 (A1') (E") (E") (A2') (E') (E') (A1') (A2") (E")
                 (E") (E') (E') (A1') (E') (E')
 Beta  Orbitals:
       Occupied  (A1') (A1') (E') (E')
       Virtual   (A2") (A1') (E') (E') (E') (E') (A1') (A2") (E')
                 (E') (A1') (E") (E") (A2') (E') (E') (A1') (A2")
                 (E") (E") (E') (E') (A1') (E') (E')
 The electronic state of the initial guess is 2-A2".
 Initial guess <Sx>= 0.0000 <Sy>= 0.0000 <Sz>= 0.5000 <S**2>= 0.7500 S= 0.5000
 Leave Link  401 at Thu Sep  5 22:26:49 2019, MaxMem=  2684354560 cpu:         1.8
 (Enter /soft/gaussian/09-e.01/g09/l502.exe)
 UHF open shell SCF:
 Using DIIS extrapolation, IDIIS=  1040.
 Integral symmetry usage will be decided dynamically.
 Keep R1 and R2 ints in memory in symmetry-blocked form, NReq=968383.
 IVT=        9380 IEndB=        9380 NGot=  2684354560 MDV=  2684290836
 LenX=  2684290836 LenY=  2684289495
 Requested convergence on RMS density matrix=1.00D-08 within  64 cycles.
 Requested convergence on MAX density matrix=1.00D-06.
 Requested convergence on             energy=1.00D-06.
 No special actions if energy rises.
 FoFCou: FMM=F IPFlag=           0 FMFlag=           0 FMFlg1=           0
         NFxFlg=           0 DoJE=F BraDBF=F KetDBF=F FulRan=T
         wScrn=  0.000000 ICntrl=     600 IOpCl=  0 I1Cent=           0 NGrid=           0
         NMat0=    1 NMatS0=    435 NMatT0=    0 NMatD0=    1 NMtDS0=    0 NMtDT0=    0
 Petite list used in FoFCou.
 Integral accuracy reduced to 1.0D-05 until final iterations.

 Cycle   1  Pass 0  IDiag  1:
 E= -39.7984719726135    
 DIIS: error= 4.36D-02 at cycle   1 NSaved=   1.
 NSaved= 1 IEnMin= 1 EnMin= -39.7984719726135     IErMin= 1 ErrMin= 4.36D-02
 ErrMax= 4.36D-02  0.00D+00 EMaxC= 1.00D-01 BMatC= 1.27D-01 BMatP= 1.27D-01
 IDIUse=3 WtCom= 5.64D-01 WtEn= 4.36D-01
 Coeff-Com:  0.100D+01
 Coeff-En:   0.100D+01
 Coeff:      0.100D+01
 Gap=     0.239 Goal=   None    Shift=    0.000
 Gap=     0.369 Goal=   None    Shift=    0.000
 GapD=    0.239 DampG=1.000 DampE=0.500 DampFc=0.5000 IDamp=-1.
 Damping current iteration by 5.00D-01
 RMSDP=1.09D-02 MaxDP=1.48D-01              OVMax= 1.42D-01

 Cycle   2  Pass 0  IDiag  1:
 E= -39.8184936985317     Delta-E=       -0.020021725918 Rises=F Damp=T
 DIIS: error= 8.46D-03 at cycle   2 NSaved=   2.
 NSaved= 2 IEnMin= 2 EnMin= -39.8184936985317     IErMin= 2 ErrMin= 8.46D-03
 ErrMax= 8.46D-03  0.00D+00 EMaxC= 1.00D-01 BMatC= 3.41D-03 BMatP= 1.27D-01
 IDIUse=3 WtCom= 9.15D-01 WtEn= 8.46D-02
 Coeff-Com:  0.600D-02 0.994D+00
 Coeff-En:   0.000D+00 0.100D+01
 Coeff:      0.549D-02 0.995D+00
 Gap=     0.298 Goal=   None    Shift=    0.000
 Gap=     0.344 Goal=   None    Shift=    0.000
 RMSDP=1.33D-03 MaxDP=1.44D-02 DE=-2.00D-02 OVMax= 6.77D-02

 Cycle   3  Pass 0  IDiag  1:
 E= -39.8390110472856     Delta-E=       -0.020517348754 Rises=F Damp=F
 DIIS: error= 1.29D-03 at cycle   3 NSaved=   3.
 NSaved= 3 IEnMin= 3 EnMin= -39.8390110472856     IErMin= 3 ErrMin= 1.29D-03
 ErrMax= 1.29D-03  0.00D+00 EMaxC= 1.00D-01 BMatC= 7.85D-05 BMatP= 3.41D-03
 IDIUse=3 WtCom= 9.87D-01 WtEn= 1.29D-02
 Coeff-Com: -0.625D-02-0.151D-01 0.102D+01
 Coeff-En:   0.000D+00 0.000D+00 0.100D+01
 Coeff:     -0.617D-02-0.149D-01 0.102D+01
 Gap=     0.302 Goal=   None    Shift=    0.000
 Gap=     0.346 Goal=   None    Shift=    0.000
 RMSDP=2.30D-04 MaxDP=2.92D-03 DE=-2.05D-02 OVMax= 3.27D-03

 Cycle   4  Pass 0  IDiag  1:
 E= -39.8390582236967     Delta-E=       -0.000047176411 Rises=F Damp=F
 DIIS: error= 3.60D-04 at cycle   4 NSaved=   4.
 NSaved= 4 IEnMin= 4 EnMin= -39.8390582236967     IErMin= 4 ErrMin= 3.60D-04
 ErrMax= 3.60D-04  0.00D+00 EMaxC= 1.00D-01 BMatC= 8.00D-06 BMatP= 7.85D-05
 IDIUse=3 WtCom= 9.96D-01 WtEn= 3.60D-03
 Coeff-Com: -0.103D-02-0.104D-01-0.281D+00 0.129D+01
 Coeff-En:   0.000D+00 0.000D+00 0.000D+00 0.100D+01
 Coeff:     -0.103D-02-0.104D-01-0.280D+00 0.129D+01
 Gap=     0.303 Goal=   None    Shift=    0.000
 Gap=     0.346 Goal=   None    Shift=    0.000
 RMSDP=1.02D-04 MaxDP=1.07D-03 DE=-4.72D-05 OVMax= 1.42D-03

 Cycle   5  Pass 0  IDiag  1:
 E= -39.8390645696377     Delta-E=       -0.000006345941 Rises=F Damp=F
 DIIS: error= 6.88D-05 at cycle   5 NSaved=   5.
 NSaved= 5 IEnMin= 5 EnMin= -39.8390645696377     IErMin= 5 ErrMin= 6.88D-05
 ErrMax= 6.88D-05  0.00D+00 EMaxC= 1.00D-01 BMatC= 2.82D-07 BMatP= 8.00D-06
 IDIUse=1 WtCom= 1.00D+00 WtEn= 0.00D+00
 Coeff-Com:  0.733D-03 0.338D-02 0.708D-02-0.260D+00 0.125D+01
 Coeff:      0.733D-03 0.338D-02 0.708D-02-0.260D+00 0.125D+01
 Gap=     0.303 Goal=   None    Shift=    0.000
 Gap=     0.346 Goal=   None    Shift=    0.000
 RMSDP=2.22D-05 MaxDP=2.13D-04 DE=-6.35D-06 OVMax= 3.07D-04

 Cycle   6  Pass 0  IDiag  1:
 E= -39.8390648108485     Delta-E=       -0.000000241211 Rises=F Damp=F
 DIIS: error= 5.88D-06 at cycle   6 NSaved=   6.
 NSaved= 6 IEnMin= 6 EnMin= -39.8390648108485     IErMin= 6 ErrMin= 5.88D-06
 ErrMax= 5.88D-06  0.00D+00 EMaxC= 1.00D-01 BMatC= 1.83D-09 BMatP= 2.82D-07
 IDIUse=1 WtCom= 1.00D+00 WtEn= 0.00D+00
 Coeff-Com: -0.593D-04-0.360D-03 0.461D-02 0.925D-02-0.157D+00 0.114D+01
 Coeff:     -0.593D-04-0.360D-03 0.461D-02 0.925D-02-0.157D+00 0.114D+01
 Gap=     0.303 Goal=   None    Shift=    0.000
 Gap=     0.346 Goal=   None    Shift=    0.000
 RMSDP=1.84D-06 MaxDP=1.82D-05 DE=-2.41D-07 OVMax= 2.60D-05

 Initial convergence to 1.0D-05 achieved.  Increase integral accuracy.
 Cycle   7  Pass 1  IDiag  1:
 E= -39.8390643013711     Delta-E=        0.000000509477 Rises=F Damp=F
 DIIS: error= 6.09D-07 at cycle   1 NSaved=   1.
 NSaved= 1 IEnMin= 1 EnMin= -39.8390643013711     IErMin= 1 ErrMin= 6.09D-07
 ErrMax= 6.09D-07  0.00D+00 EMaxC= 1.00D-01 BMatC= 1.65D-11 BMatP= 1.65D-11
 IDIUse=1 WtCom= 1.00D+00 WtEn= 0.00D+00
 Coeff-Com:  0.100D+01
 Coeff:      0.100D+01
 Gap=     0.303 Goal=   None    Shift=    0.000
 Gap=     0.346 Goal=   None    Shift=    0.000
 RMSDP=1.84D-06 MaxDP=1.82D-05 DE= 5.09D-07 OVMax= 1.80D-06

 Cycle   8  Pass 1  IDiag  1:
 E= -39.8390643013780     Delta-E=       -0.000000000007 Rises=F Damp=F
 DIIS: error= 3.01D-07 at cycle   2 NSaved=   2.
 NSaved= 2 IEnMin= 2 EnMin= -39.8390643013780     IErMin= 2 ErrMin= 3.01D-07
 ErrMax= 3.01D-07  0.00D+00 EMaxC= 1.00D-01 BMatC= 4.19D-12 BMatP= 1.65D-11
 IDIUse=1 WtCom= 1.00D+00 WtEn= 0.00D+00
 Coeff-Com:  0.243D+00 0.757D+00
 Coeff:      0.243D+00 0.757D+00
 Gap=     0.303 Goal=   None    Shift=    0.000
 Gap=     0.346 Goal=   None    Shift=    0.000
 RMSDP=4.90D-08 MaxDP=9.23D-07 DE=-6.84D-12 OVMax= 7.49D-07

 Cycle   9  Pass 1  IDiag  1:
 E= -39.8390643013791     Delta-E=       -0.000000000001 Rises=F Damp=F
 DIIS: error= 1.67D-07 at cycle   3 NSaved=   3.
 NSaved= 3 IEnMin= 3 EnMin= -39.8390643013791     IErMin= 3 ErrMin= 1.67D-07
 ErrMax= 1.67D-07  0.00D+00 EMaxC= 1.00D-01 BMatC= 1.21D-12 BMatP= 4.19D-12
 IDIUse=1 WtCom= 1.00D+00 WtEn= 0.00D+00
 Coeff-Com: -0.105D+00 0.311D+00 0.794D+00
 Coeff:     -0.105D+00 0.311D+00 0.794D+00
 Gap=     0.303 Goal=   None    Shift=    0.000
 Gap=     0.346 Goal=   None    Shift=    0.000
 RMSDP=1.88D-08 MaxDP=2.66D-07 DE=-1.09D-12 OVMax= 3.50D-07

 Cycle  10  Pass 1  IDiag  1:
 E= -39.8390643013795     Delta-E=       -0.000000000000 Rises=F Damp=F
 DIIS: error= 1.29D-08 at cycle   4 NSaved=   4.
 NSaved= 4 IEnMin= 4 EnMin= -39.8390643013795     IErMin= 4 ErrMin= 1.29D-08
 ErrMax= 1.29D-08  0.00D+00 EMaxC= 1.00D-01 BMatC= 1.24D-14 BMatP= 1.21D-12
 IDIUse=1 WtCom= 1.00D+00 WtEn= 0.00D+00
 Coeff-Com:  0.165D-01-0.988D-01-0.204D+00 0.129D+01
 Coeff:      0.165D-01-0.988D-01-0.204D+00 0.129D+01
 Gap=     0.303 Goal=   None    Shift=    0.000
 Gap=     0.346 Goal=   None    Shift=    0.000
 RMSDP=4.45D-09 MaxDP=4.16D-08 DE=-3.98D-13 OVMax= 6.22D-08

 SCF Done:  E(UB3LYP) =  -39.8390643014     A.U. after   10 cycles
            NFock= 10  Conv=0.45D-08     -V/T= 2.0097
 <Sx>= 0.0000 <Sy>= 0.0000 <Sz>= 0.5000 <S**2>= 0.7537 S= 0.5019
 <L.S>= 0.000000000000E+00
 KE= 3.945530463649D+01 PE=-1.109155514609D+02 EE= 2.205195327940D+01
 Annihilation of the first spin contaminant:
 S**2 before annihilation     0.7537,   after     0.7500
 Leave Link  502 at Thu Sep  5 22:26:49 2019, MaxMem=  2684354560 cpu:         2.4
 (Enter /soft/gaussian/09-e.01/g09/l508.exe)
 QCSCF skips out because SCF is already converged.
 Leave Link  508 at Thu Sep  5 22:26:49 2019, MaxMem=  2684354560 cpu:         0.0
 (Enter /soft/gaussian/09-e.01/g09/l801.exe)
 DoSCS=F DFT=T ScalE2(SS,OS)=  1.000000  1.000000
 Range of M.O.s used for correlation:     1    29
 NBasis=    29 NAE=     5 NBE=     4 NFC=     0 NFV=     0
 NROrb=     29 NOA=     5 NOB=     4 NVA=    24 NVB=    25
 Leave Link  801 at Thu Sep  5 22:26:49 2019, MaxMem=  2684354560 cpu:         0.2
 (Enter /soft/gaussian/09-e.01/g09/l1101.exe)
 Using compressed storage, NAtomX=     4.
 Will process      5 centers per pass.
 Leave Link 1101 at Thu Sep  5 22:26:49 2019, MaxMem=  2684354560 cpu:         1.5
 (Enter /soft/gaussian/09-e.01/g09/l1102.exe)
 Symmetrizing basis deriv contribution to polar:
 IMax=3 JMax=2 DiffMx= 0.00D+00
 Leave Link 1102 at Thu Sep  5 22:26:49 2019, MaxMem=  2684354560 cpu:         0.2
 (Enter /soft/gaussian/09-e.01/g09/l1110.exe)
 Forming Gx(P) for the SCF density, NAtomX=     4.
 Integral derivatives from FoFJK, PRISM(SPDF).
 Do as many integral derivatives as possible in FoFJK.
 G2DrvN: MDV=    2684354424.
 G2DrvN: will do     5 centers at a time, making    1 passes.
 Calling FoFCou, ICntrl=  3107 FMM=F I1Cent=   0 AccDes= 0.00D+00.
 FoFJK:  IHMeth= 1 ICntrl=    3107 DoSepK=F KAlg= 0 I1Cent=   0 FoldK=F
 IRaf=         0 NMat=   1 IRICut=       1 DoRegI=T DoRafI=F ISym2E= 1.
 FoFCou: FMM=F IPFlag=           0 FMFlag=      100000 FMFlg1=           0
         NFxFlg=           0 DoJE=F BraDBF=F KetDBF=F FulRan=T
         wScrn=  0.000000 ICntrl=    3107 IOpCl=  1 I1Cent=           0 NGrid=           0
         NMat0=    1 NMatS0=      1 NMatT0=    0 NMatD0=    1 NMtDS0=    0 NMtDT0=    0
 Petite list used in FoFCou.
 End of G2Drv F.D. properties file   721 does not exist.
 End of G2Drv F.D. properties file   722 does not exist.
 End of G2Drv F.D. properties file   788 does not exist.
 Leave Link 1110 at Thu Sep  5 22:26:49 2019, MaxMem=  2684354560 cpu:         2.4
 (Enter /soft/gaussian/09-e.01/g09/l1002.exe)
 Minotr:  UHF open shell wavefunction.
          IDoAtm=1111
          Direct CPHF calculation.
          Differentiating once with respect to electric field.
                with respect to dipole field.
          Differentiating once with respect to nuclear coordinates.
          Using symmetry in CPHF.
          Requested convergence is 1.0D-08 RMS, and 1.0D-07 maximum.
          Secondary convergence is 1.0D-12 RMS, and 1.0D-12 maximum.
          NewPWx=T KeepS1=F KeepF1=F KeepIn=T MapXYZ=F SortEE=F KeepMc=T.
          MDV=    2684354458 using IRadAn=       1.
 Generate precomputed XC quadrature information.
 Keep R1 and R2 ints in memory in symmetry-blocked form, NReq=957655.
 FoFCou: FMM=F IPFlag=           0 FMFlag=           0 FMFlg1=           0
         NFxFlg=           0 DoJE=F BraDBF=F KetDBF=F FulRan=T
         wScrn=  0.000000 ICntrl=     600 IOpCl=  0 I1Cent=           0 NGrid=           0
         NMat0=    1 NMatS0=    435 NMatT0=    0 NMatD0=    1 NMtDS0=    0 NMtDT0=    0
 Petite list used in FoFCou.
          Solving linear equations simultaneously, MaxMat=       0.
          There are     9 degrees of freedom in the 1st order CPHF.  IDoFFX=4 NUNeed=     9.
      9 vectors produced by pass  0 Test12= 2.44D-15 1.11D-08 XBig12= 1.20D+01 1.55D+00.
 AX will form     9 AO Fock derivatives at one time.
      9 vectors produced by pass  1 Test12= 2.44D-15 1.11D-08 XBig12= 5.35D-01 5.56D-01.
      9 vectors produced by pass  2 Test12= 2.44D-15 1.11D-08 XBig12= 1.67D-03 2.81D-02.
      9 vectors produced by pass  3 Test12= 2.44D-15 1.11D-08 XBig12= 5.06D-06 7.82D-04.
      9 vectors produced by pass  4 Test12= 2.44D-15 1.11D-08 XBig12= 2.77D-08 7.93D-05.
      7 vectors produced by pass  5 Test12= 2.44D-15 1.11D-08 XBig12= 1.48D-10 5.75D-06.
      4 vectors produced by pass  6 Test12= 2.44D-15 1.11D-08 XBig12= 2.71D-13 1.84D-07.
      1 vectors produced by pass  7 Test12= 2.44D-15 1.11D-08 XBig12= 1.04D-15 1.15D-08.
 InvSVY:  IOpt=1 It=  1 EMax= 1.87D-16
 Solved reduced A of dimension    57 with     9 vectors.
 FullF1:  Do perturbations    1 to     9.
 Isotropic polarizability for W=    0.000000       10.66 Bohr**3.
 End of Minotr F.D. properties file   721 does not exist.
 End of Minotr F.D. properties file   722 does not exist.
 End of Minotr F.D. properties file   788 does not exist.
 Leave Link 1002 at Thu Sep  5 22:26:50 2019, MaxMem=  2684354560 cpu:         5.2
 (Enter /soft/gaussian/09-e.01/g09/l601.exe)
 Copying SCF densities to generalized density rwf, IOpCl= 1 IROHF=0.

 **********************************************************************

            Population analysis using the SCF density.

 **********************************************************************

 Orbital symmetries:
 Alpha Orbitals:
       Occupied  (A1') (A1') (E') (E') (A2")
       Virtual   (A1') (E') (E') (E') (E') (A2") (A1') (E') (E')
                 (A1') (E") (E") (A2') (E') (E') (A1') (A2") (E")
                 (E") (E') (E') (A1') (E') (E')
 Beta  Orbitals:
       Occupied  (A1') (A1') (E') (E')
       Virtual   (A2") (A1') (E') (E') (E') (E') (A1') (A2") (E')
                 (E') (A1') (E") (E") (A2') (E') (E') (A1') (A2")
                 (E") (E") (E') (E') (A1') (E') (E')
 The electronic state is 2-A2".
 Alpha  occ. eigenvalues --  -10.19891  -0.68171  -0.41592  -0.41592  -0.22974
 Alpha virt. eigenvalues --    0.07289   0.14168   0.14168   0.43607   0.43607
 Alpha virt. eigenvalues --    0.47346   0.48766   0.65499   0.65499   0.85497
 Alpha virt. eigenvalues --    0.96112   0.96112   1.35610   1.45124   1.45124
 Alpha virt. eigenvalues --    1.48616   1.59546   1.83830   1.83830   2.08029
 Alpha virt. eigenvalues --    2.08029   2.44421   2.49293   2.49293
  Beta  occ. eigenvalues --  -10.18464  -0.64093  -0.40587  -0.40587
  Beta virt. eigenvalues --   -0.05988   0.08357   0.14582   0.14582   0.43906
  Beta virt. eigenvalues --    0.43906   0.51578   0.54796   0.66260   0.66260
  Beta virt. eigenvalues --    0.88359   0.99884   0.99884   1.35250   1.45452
  Beta virt. eigenvalues --    1.45452   1.55131   1.60709   1.86866   1.86866
  Beta virt. eigenvalues --    2.08331   2.08331   2.44989   2.50051   2.50051
          Condensed to atoms (all electrons):
               1          2          3          4
     1  C    4.927014   0.408169   0.408169   0.408169
     2  H    0.408169   0.599825  -0.029251  -0.029251
     3  H    0.408169  -0.029251   0.599825  -0.029251
     4  H    0.408169  -0.029251  -0.029251   0.599825
          Atomic-Atomic Spin Densities.
               1          2          3          4
     1  C    1.109412   0.003363   0.003363   0.003363
     2  H    0.003363  -0.047087   0.001945   0.001945
     3  H    0.003363   0.001945  -0.047087   0.001945
     4  H    0.003363   0.001945   0.001945  -0.047087
 Mulliken charges and spin densities:
               1          2
     1  C   -0.151522   1.119501
     2  H    0.050507  -0.039834
     3  H    0.050507  -0.039834
     4  H    0.050507  -0.039834
 Sum of Mulliken charges =   0.00000   1.00000
 Mulliken charges and spin densities with hydrogens summed into heavy atoms:
               1          2
     1  C    0.000000   1.000000
 APT charges:
               1
     1  C   -0.130853
     2  H    0.043618
     3  H    0.043618
     4  H    0.043618
 Sum of APT charges =   0.00000
 APT charges with hydrogens summed into heavy atoms:
               1
     1  C    0.000001
 Electronic spatial extent (au):  <R**2>=             29.8177
 Charge=             -0.0000 electrons
 Dipole moment (field-independent basis, Debye):
    X=              0.0000    Y=             -0.0000    Z=              0.0000  Tot=              0.0000
 Quadrupole moment (field-independent basis, Debye-Ang):
   XX=             -7.1227   YY=             -7.1227   ZZ=             -8.7034
   XY=             -0.0000   XZ=             -0.0000   YZ=              0.0000
 Traceless Quadrupole moment (field-independent basis, Debye-Ang):
   XX=              0.5269   YY=              0.5269   ZZ=             -1.0538
   XY=             -0.0000   XZ=             -0.0000   YZ=              0.0000
 Octapole moment (field-independent basis, Debye-Ang**2):
  XXX=              0.0000  YYY=              0.7683  ZZZ=             -0.0000  XYY=              0.0000
  XXY=             -0.7683  XXZ=             -0.0000  XZZ=              0.0000  YZZ=              0.0000
  YYZ=             -0.0000  XYZ=              0.0000
 Hexadecapole moment (field-independent basis, Debye-Ang**3):
 XXXX=            -14.5518 YYYY=            -14.5518 ZZZZ=             -9.4307 XXXY=              0.0000
 XXXZ=             -0.0000 YYYX=              0.0000 YYYZ=              0.0000 ZZZX=              0.0000
 ZZZY=             -0.0000 XXYY=             -4.8506 XXZZ=             -4.3570 YYZZ=             -4.3570
 XXYZ=             -0.0000 YYXZ=             -0.0000 ZZXY=              0.0000
 N-N= 9.569229243668D+00 E-N=-1.109155514803D+02  KE= 3.945530463649D+01
 Symmetry A1   KE= 3.640914631076D+01
 Symmetry A2   KE= 9.995842282146D-20
 Symmetry B1   KE= 1.913334204303D+00
 Symmetry B2   KE= 1.132824121426D+00
  Exact polarizability:  12.578   0.000  12.578  -0.000  -0.000   6.828
 Approx polarizability:  14.871  -0.000  14.871  -0.000   0.000   8.287
                          Isotropic Fermi Contact Couplings
        Atom                 a.u.       MegaHertz       Gauss      10(-4) cm-1
     1  C(13)              0.12707     142.84701      50.97136      47.64863
     2  H(1)              -0.01319     -58.97284     -21.04298     -19.67122
     3  H(1)              -0.01319     -58.97284     -21.04298     -19.67122
     4  H(1)              -0.01319     -58.97284     -21.04298     -19.67122
 --------------------------------------------------------
       Center         ----  Spin Dipole Couplings  ----
                      3XX-RR        3YY-RR        3ZZ-RR
 --------------------------------------------------------
     1   Atom       -0.550861     -0.550861      1.101722
     2   Atom       -0.074708      0.077621     -0.002912
     3   Atom        0.039538     -0.036626     -0.002912
     4   Atom        0.039538     -0.036626     -0.002912
 --------------------------------------------------------
                        XY            XZ            YZ
 --------------------------------------------------------
     1   Atom       -0.000000      0.000000     -0.000000
     2   Atom       -0.000000      0.000000     -0.000000
     3   Atom        0.065960      0.000000      0.000000
     4   Atom       -0.065960     -0.000000      0.000000
 --------------------------------------------------------


 ---------------------------------------------------------------------------------
              Anisotropic Spin Dipole Couplings in Principal Axis System
 ---------------------------------------------------------------------------------

       Atom             a.u.   MegaHertz   Gauss  10(-4) cm-1        Axes

              Baa    -0.5509   -73.920   -26.377   -24.657  0.9991  0.0429  0.0000
     1 C(13)  Bbb    -0.5509   -73.920   -26.377   -24.657 -0.0429  0.9991 -0.0000
              Bcc     1.1017   147.841    52.753    49.314  0.0000  0.0000  1.0000
 
              Baa    -0.0747   -39.861   -14.223   -13.296  1.0000  0.0000  0.0000
     2 H(1)   Bbb    -0.0029    -1.554    -0.554    -0.518  0.0000  0.0000  1.0000
              Bcc     0.0776    41.415    14.778    13.814 -0.0000  1.0000 -0.0000
 
              Baa    -0.0747   -39.861   -14.223   -13.296 -0.5000  0.8660  0.0000
     3 H(1)   Bbb    -0.0029    -1.554    -0.554    -0.518  0.0000  0.0000  1.0000
              Bcc     0.0776    41.415    14.778    13.814  0.8660  0.5000 -0.0000
 
              Baa    -0.0747   -39.861   -14.223   -13.296  0.5000  0.8660 -0.0000
     4 H(1)   Bbb    -0.0029    -1.554    -0.554    -0.518  0.0000  0.0000  1.0000
              Bcc     0.0776    41.415    14.778    13.814  0.8660 -0.5000  0.0000
 

 ---------------------------------------------------------------------------------

 No NMR shielding tensors so no spin-rotation constants.
 Leave Link  601 at Thu Sep  5 22:26:50 2019, MaxMem=  2684354560 cpu:         2.7
 (Enter /soft/gaussian/09-e.01/g09/l701.exe)
 Compute integral second derivatives.
 ... and contract with generalized density number  0.
 Entering OneElI...
 Calculate overlap and kinetic energy integrals
    NBasis =  30  MinDer = 2  MaxDer = 2
 Requested accuracy = 0.1000D-12
 PrsmSu:  NPrtUS=  10 ThrOK=T IAlg=1 NPAlg=1 LenDen=           0.
 Prism:   IPart=     0 DynPar=F LinDyn=F Incr=           1.
 PRISM was handed   268428063 working-precision words and   120 shell-pairs
 PRISM was handed   268428063 working-precision words and   120 shell-pairs
 PRISM was handed   268428063 working-precision words and   120 shell-pairs
 PRISM was handed   268428063 working-precision words and   120 shell-pairs
 PRISM was handed   268428063 working-precision words and   120 shell-pairs
 PRISM was handed   268428063 working-precision words and   120 shell-pairs
 PRISM was handed   268428063 working-precision words and   120 shell-pairs
 PRISM was handed   268428063 working-precision words and   120 shell-pairs
 PRISM was handed   268428063 working-precision words and   120 shell-pairs
 PRISM was handed   268428063 working-precision words and   120 shell-pairs
 IPart=  4 NShTot=          10 NBatch=           8 AvBLen=         1.3
 IPart=  2 NShTot=          18 NBatch=          16 AvBLen=         1.1
 IPart=  7 NShTot=           7 NBatch=           7 AvBLen=         1.0
 IPart=  9 NShTot=           5 NBatch=           5 AvBLen=         1.0
 IPart=  5 NShTot=          10 NBatch=           8 AvBLen=         1.3
 IPart=  3 NShTot=          13 NBatch=          11 AvBLen=         1.2
 IPart=  1 NShTot=          21 NBatch=          18 AvBLen=         1.2
 IPart=  6 NShTot=           7 NBatch=           7 AvBLen=         1.0
 IPart=  0 NShTot=          24 NBatch=          21 AvBLen=         1.1
 IPart=  8 NShTot=           5 NBatch=           5 AvBLen=         1.0
 PrSmSu:  NxtVal=             11.
 Entering OneElI...
 Calculate potential energy integrals
    NBasis =  30  MinDer = 2  MaxDer = 2
 Requested accuracy = 0.1000D-12
 PrsmSu:  NPrtUS=  10 ThrOK=T IAlg=1 NPAlg=1 LenDen=           0.
 Prism:   IPart=     0 DynPar=F LinDyn=F Incr=           1.
 PRISM was handed   268428865 working-precision words and   114 shell-pairs
 PRISM was handed   268428865 working-precision words and   114 shell-pairs
 PRISM was handed   268428865 working-precision words and   114 shell-pairs
 PRISM was handed   268428865 working-precision words and   114 shell-pairs
 PRISM was handed   268428865 working-precision words and   114 shell-pairs
 PRISM was handed   268428865 working-precision words and   114 shell-pairs
 PRISM was handed   268428865 working-precision words and   114 shell-pairs
 PRISM was handed   268428865 working-precision words and   114 shell-pairs
 PRISM was handed   268428865 working-precision words and   114 shell-pairs
 PRISM was handed   268428865 working-precision words and   114 shell-pairs
 IPart=  4 NShTot=          36 NBatch=           9 AvBLen=         4.0
 IPart=  2 NShTot=          76 NBatch=          19 AvBLen=         4.0
 IPart=  0 NShTot=          96 NBatch=          24 AvBLen=         4.0
 IPart=  5 NShTot=          28 NBatch=           7 AvBLen=         4.0
 IPart=  7 NShTot=          24 NBatch=           6 AvBLen=         4.0
 IPart=  9 NShTot=          20 NBatch=           5 AvBLen=         4.0
 IPart=  3 NShTot=          48 NBatch=          12 AvBLen=         4.0
 IPart=  1 NShTot=          84 NBatch=          21 AvBLen=         4.0
 IPart=  6 NShTot=          24 NBatch=           6 AvBLen=         4.0
 IPart=  8 NShTot=          20 NBatch=           5 AvBLen=         4.0
 PrSmSu:  NxtVal=             11.
 Polarizability after L701:
                1             2             3 
      1  0.125780D+02
      2  0.000000D+00  0.125778D+02
      3  0.000000D+00  0.000000D+00  0.682751D+01
 Dipole Derivatives after L701:
                 1             2             3             4             5 
      1   0.884637D-02  0.000000D+00  0.000000D+00  0.446941D-01  0.000000D+00
      2   0.000000D+00  0.883821D-02  0.000000D+00  0.000000D+00 -0.505836D-01
      3   0.000000D+00  0.000000D+00 -0.410243D+00  0.000000D+00  0.000000D+00
                 6             7             8             9            10 
      1   0.000000D+00 -0.267672D-01 -0.412574D-01  0.000000D+00 -0.267672D-01
      2   0.000000D+00 -0.412570D-01  0.208737D-01  0.000000D+00  0.412570D-01
      3   0.136744D+00  0.000000D+00  0.000000D+00  0.136747D+00  0.000000D+00
                11            12 
      1   0.412574D-01  0.000000D+00
      2   0.208737D-01  0.000000D+00
      3   0.000000D+00  0.136747D+00
 Hessian after L701:
                1             2             3             4             5 
      1  0.318351D+01
      2  0.000000D+00  0.318351D+01
      3  0.000000D+00  0.000000D+00  0.514537D+01
      4 -0.181028D+01  0.000000D+00  0.000000D+00  0.177402D+01
      5  0.000000D+00 -0.312064D+00  0.000000D+00  0.000000D+00  0.275957D+00
      6  0.000000D+00  0.000000D+00 -0.171512D+01  0.000000D+00  0.000000D+00
      7 -0.686617D+00  0.648746D+00  0.000000D+00  0.181296D-01  0.257905D-01
      8  0.648746D+00 -0.143573D+01  0.000000D+00 -0.259218D-01  0.180538D-01
      9  0.000000D+00  0.000000D+00 -0.171512D+01  0.000000D+00  0.000000D+00
     10 -0.686617D+00 -0.648746D+00  0.000000D+00  0.181296D-01 -0.257905D-01
     11 -0.648746D+00 -0.143573D+01  0.000000D+00  0.259218D-01  0.180538D-01
     12  0.000000D+00  0.000000D+00 -0.171512D+01  0.000000D+00  0.000000D+00
                6             7             8             9            10 
      6  0.169954D+01
      7  0.000000D+00  0.650472D+00
      8  0.000000D+00 -0.648680D+00  0.139950D+01
      9  0.779300D-02  0.000000D+00  0.000000D+00  0.169954D+01
     10  0.000000D+00  0.180159D-01  0.258562D-01  0.000000D+00  0.650472D+00
     11  0.000000D+00 -0.258562D-01  0.181676D-01  0.000000D+00  0.648680D+00
     12  0.779300D-02  0.000000D+00  0.000000D+00  0.779300D-02  0.000000D+00
               11            12 
     11  0.139950D+01
     12  0.000000D+00  0.169954D+01
 Leave Link  701 at Thu Sep  5 22:26:50 2019, MaxMem=  2684354560 cpu:         1.7
 (Enter /soft/gaussian/09-e.01/g09/l702.exe)
 L702 exits ... SP integral derivatives will be done elsewhere.
 Leave Link  702 at Thu Sep  5 22:26:50 2019, MaxMem=  2684354560 cpu:         0.2
 (Enter /soft/gaussian/09-e.01/g09/l703.exe)
 Compute integral second derivatives, UseDBF=F ICtDFT=           0.
 Integral derivatives from FoFJK, PRISM(SPDF).
 ICntrl=    100127.
 Calling FoFJK, ICntrl=    100127 FMM=F ISym2X=1 I1Cent= 0 IOpClX= 1 NMat=1 NMatS=1 NMatT=0.
 FoFJK:  IHMeth= 1 ICntrl=  100127 DoSepK=F KAlg= 0 I1Cent=   0 FoldK=F
 IRaf=         0 NMat=   1 IRICut=       1 DoRegI=T DoRafI=F ISym2E= 1.
 FoFCou: FMM=F IPFlag=           0 FMFlag=      100000 FMFlg1=         800
         NFxFlg=           0 DoJE=F BraDBF=F KetDBF=F FulRan=T
         wScrn=  0.000000 ICntrl=  100127 IOpCl=  1 I1Cent=           0 NGrid=           0
         NMat0=    1 NMatS0=      1 NMatT0=    0 NMatD0=    1 NMtDS0=    0 NMtDT0=    0
 Petite list used in FoFCou.
 FoFCou:  KetSym=F NOpSet= 12 NOpAb=4 NOp= 12.
 FoFCou:  CnvScl= 1.00D+00 Thresh= 1.00D-10 IAcrcy=      10.
 PrismS was handed  2684334725 working-precision words and   120 shell-pairs
 FoFCou: LinMIO=F DoNuc=F BraDBF=F KetDBF=F HaveP=T PDBF=F HaveZ=T HaveW=F
         NIJTC =       6 NIJTAt=       0 NIJTCD=       0 NIJTT =       6
         IJTBeg=       1 IJTEnd=       6 KLTBeg=       1 KLTEnd=       6
         IPTBeg=       1 IPTEnd=       6 IPTBCv=       1 IPTECv=       6
         IZTBeg=       1 IZTEnd=       6 IZTBCv=       1 IZTECv=       6
         IWTBeg=       7 IWTEnd=       6 IWTBCv=       7 IWTECv=       6
         INTBeg=       1 INTEnd=       0 IFTBCv=       1 IFTECv=       6
 NCel replicated for PrismC:     1
 CoulSu:  IncDef=  1024 NBBP=           7260 NTPThr=   100 NPartT=   10 Incr=           7 LDynOK=F.
 CoulSu:  NPrtUS=  10 ThrOK=T IAlg=1 NPAlg=1 LenDen=           0 LWGrdD=           0 DoCopy=F.
 Enter PrismC: JobTyp=22 DoJE=F Cont=F.
 PrismC:  IPart=     0 DynPar=F LinDyn=F Incr=           7 UseFst=F UseS4=T IGathr=2.
 PrismC was handed   268428063 working-precision words and   120 shell-pairs
 Enter PrismC: JobTyp=22 DoJE=F Cont=F.
 PrismC was handed   268428063 working-precision words and   120 shell-pairs
 Enter PrismC: JobTyp=22 DoJE=F Cont=F.
 PrismC was handed   268428063 working-precision words and   120 shell-pairs
 Enter PrismC: JobTyp=22 DoJE=F Cont=F.
 Enter PrismC: JobTyp=22 DoJE=F Cont=F.
 PrismC was handed   268428063 working-precision words and   120 shell-pairs
 PrismC was handed   268428063 working-precision words and   120 shell-pairs
 Enter PrismC: JobTyp=22 DoJE=F Cont=F.
 PrismC was handed   268428063 working-precision words and   120 shell-pairs
 Enter PrismC: JobTyp=22 DoJE=F Cont=F.
 Enter PrismC: JobTyp=22 DoJE=F Cont=F.
 Enter PrismC: JobTyp=22 DoJE=F Cont=F.
 PrismC was handed   268428063 working-precision words and   120 shell-pairs
 PrismC was handed   268428063 working-precision words and   120 shell-pairs
 Enter PrismC: JobTyp=22 DoJE=F Cont=F.
 PrismC was handed   268428063 working-precision words and   120 shell-pairs
 PrismC was handed   268428063 working-precision words and   120 shell-pairs
 IPart=  9 NShTot=         135 NShNF=         135 NShFF=           0 NBatch=          78 AvBLen=         1.7
 IPart=  7 NShTot=         120 NShNF=         120 NShFF=           0 NBatch=          92 AvBLen=         1.3
 IPart=  5 NShTot=         173 NShNF=         173 NShFF=           0 NBatch=         135 AvBLen=         1.3
 IPart=  3 NShTot=         162 NShNF=         162 NShFF=           0 NBatch=         116 AvBLen=         1.4
 IPart=  1 NShTot=         173 NShNF=         173 NShFF=           0 NBatch=         134 AvBLen=         1.3
 IPart=  2 NShTot=         233 NShNF=         233 NShFF=           0 NBatch=         172 AvBLen=         1.4
 IPart=  0 NShTot=         277 NShNF=         277 NShFF=           0 NBatch=         175 AvBLen=         1.6
 IPart=  4 NShTot=         188 NShNF=         188 NShFF=           0 NBatch=         123 AvBLen=         1.5
 IPart=  6 NShTot=         177 NShNF=         177 NShFF=           0 NBatch=         105 AvBLen=         1.7
 IPart=  8 NShTot=         201 NShNF=         201 NShFF=           0 NBatch=         117 AvBLen=         1.7
 CoulSu:  NxtVal=             71.
 ReadGW:  IGet=0 IStart=           1 Next=           1 LGW=           0.
 Remaining memory in FofDFT     2560.00 Mw
 CkSvGd:  ISavGI=        -1 IRadAn=       5 IRASav=       5 ISavGd=        -1.
 CalDSu:  NPrtUS=  10 ThrOK=T IAlg=1 NPAlg=2 DoDPD=T LenP=         465 LenD1P=             0.
 IPart=  0 IRanGd=          0 ScrnBf=T ScrnGd=T RCrit=4.00D+00 DoMicB=T.
 IPart=  5         1485 of         1598 points in       5 batches and       14 microbatches, Max-NSigAt=       4 Max-NSgAt2=       4
 IPart=  0         2029 of         2029 points in       2 batches and        5 microbatches, Max-NSigAt=       4 Max-NSgAt2=       4
 IPart=  9         1929 of         2010 points in       4 batches and        8 microbatches, Max-NSigAt=       4 Max-NSgAt2=       4
 IPart=  1         1587 of         1758 points in       5 batches and       15 microbatches, Max-NSigAt=       4 Max-NSgAt2=       4
 IPart=  2         1960 of         2020 points in       3 batches and        8 microbatches, Max-NSigAt=       4 Max-NSgAt2=       4
 IPart=  7         1707 of         1810 points in       4 batches and       15 microbatches, Max-NSigAt=       4 Max-NSgAt2=       4
 IPart=  4         1320 of         1436 points in       4 batches and       14 microbatches, Max-NSigAt=       4 Max-NSgAt2=       4
 IPart=  3         2066 of         2113 points in       3 batches and        9 microbatches, Max-NSigAt=       4 Max-NSgAt2=       4
 IPart=  6         1303 of         1436 points in       4 batches and       20 microbatches, Max-NSigAt=       4 Max-NSgAt2=       4
 IPart=  8         1338 of         1436 points in       4 batches and       19 microbatches, Max-NSigAt=       4 Max-NSgAt2=       4
 Polarizability after L703:
                1             2             3 
      1  0.125780D+02
      2  0.000000D+00  0.125778D+02
      3  0.000000D+00  0.000000D+00  0.682751D+01
 Dipole Derivatives after L703:
                 1             2             3             4             5 
      1   0.884637D-02  0.000000D+00  0.000000D+00  0.446941D-01  0.000000D+00
      2   0.000000D+00  0.883821D-02  0.000000D+00  0.000000D+00 -0.505836D-01
      3   0.000000D+00  0.000000D+00 -0.410243D+00  0.000000D+00  0.000000D+00
                 6             7             8             9            10 
      1   0.000000D+00 -0.267672D-01 -0.412574D-01  0.000000D+00 -0.267672D-01
      2   0.000000D+00 -0.412570D-01  0.208737D-01  0.000000D+00  0.412570D-01
      3   0.136744D+00  0.000000D+00  0.000000D+00  0.136747D+00  0.000000D+00
                11            12 
      1   0.412574D-01  0.000000D+00
      2   0.208737D-01  0.000000D+00
      3   0.000000D+00  0.136747D+00
 Hessian after L703:
                1             2             3             4             5 
      1  0.609791D+00
      2  0.000000D+00  0.609793D+00
      3  0.000000D+00  0.000000D+00  0.198721D-01
      4 -0.512489D-01  0.000000D+00  0.000000D+00  0.431298D-01
      5  0.000000D+00 -0.355279D+00  0.000000D+00  0.000000D+00  0.367698D+00
      6  0.000000D+00  0.000000D+00 -0.662285D-02  0.000000D+00  0.000000D+00
      7 -0.279271D+00 -0.131649D+00  0.000000D+00  0.405956D-02  0.468683D-02
      8 -0.131649D+00 -0.127257D+00  0.000000D+00 -0.224731D-01 -0.620937D-02
      9  0.000000D+00  0.000000D+00 -0.662373D-02  0.000000D+00  0.000000D+00
     10 -0.279271D+00  0.131649D+00  0.000000D+00  0.405956D-02 -0.468683D-02
     11  0.131649D+00 -0.127257D+00  0.000000D+00  0.224731D-01 -0.620937D-02
     12  0.000000D+00  0.000000D+00 -0.662373D-02  0.000000D+00  0.000000D+00
                6             7             8             9            10 
      6  0.230191D-02
      7  0.000000D+00  0.286556D+00
      8  0.000000D+00  0.140542D+00  0.124272D+00
      9  0.216047D-02  0.000000D+00  0.000000D+00  0.230191D-02
     10  0.000000D+00 -0.113438D-01  0.135800D-01  0.000000D+00  0.286556D+00
     11  0.000000D+00 -0.135800D-01  0.919403D-02  0.000000D+00 -0.140542D+00
     12  0.216047D-02  0.000000D+00  0.000000D+00  0.216047D-02  0.000000D+00
               11            12 
     11  0.124272D+00
     12  0.000000D+00  0.230191D-02
 Leave Link  703 at Thu Sep  5 22:26:51 2019, MaxMem=  2684354560 cpu:         2.6
 (Enter /soft/gaussian/09-e.01/g09/l716.exe)
 FrcOut:
 IF    =    42 IFX   =    54 IFXYZ =    66
 IFFX  =    78 IFFFX =   156 IFLen =    12
 IFFLen=    78 IFFFLn=     0 IEDerv=   156
 LEDerv=   629 IFroze=   943 ICStrt=  2736
 Dipole        = 3.44776291D-17-1.13868333D-15 5.11853808D-25
 DipoleDeriv   = 8.84636740D-03-9.49720581D-14 9.31977001D-23
                 3.32758764D-13 8.83821476D-03-6.47271110D-14
                 6.50188649D-22-9.92201692D-13-4.10242672D-01
                 4.46940836D-02 6.09364606D-13 1.45300366D-21
                 1.07533599D-12-5.05835856D-02-1.16277239D-13
                -2.18713159D-22 3.31104419D-13 1.36743846D-01
                -2.67671977D-02-4.12570078D-02 1.38627395D-13
                -4.12573894D-02 2.08736756D-02 8.85014823D-14
                -2.87171394D-13-1.66291007D-13 1.36746629D-01
                -2.67671977D-02 4.12570078D-02-1.38627396D-13
                 4.12573894D-02 2.08736756D-02 8.85014792D-14
                 2.87171394D-13-1.66291007D-13 1.36746629D-01
 Polarizability= 1.25779598D+01 1.75818236D-13 1.25778375D+01
                -7.02472776D-21-1.87549429D-12 6.82750567D+00
 VibFq2-Diag1:  N=     12 IV=           5 MDV=  2684351076 NE2=   223695922
 Full mass-weighted force constant matrix:
 Low frequencies ---   -0.0819   -0.0046    0.0007   60.8969   60.8970   61.7986
 Low frequencies ---  466.2689 1371.2355 1371.2357
 OrtVCM:  Ph=1 IPass= 1 DotMx1= 0.00D+00
 OrtVCM:  IS=    1 I=    1 IndO=    1 Dot= 1.00D+00 DotN= 1.00D+00 ElMax1= 8.94D-01 ElMax1N= 8.94D-01
 OrtVCM:  Ph=2 NNew=    0 IAdd=    2 IPass= 1 DotMx2= 0.00D+00
 OrtVCM:  IS=    1 I=    2 IndO=    2 Dot= 1.00D+00 DotN= 1.00D+00 ElMax1= 8.94D-01 ElMax1N= 8.94D-01
 OrtVCM:  Ph=2 NNew=    0 IAdd=    3 IPass= 1 DotMx2= 0.00D+00
 OrtVCM:  IS=    1 I=    3 IndO=    3 Dot= 1.00D+00 DotN= 1.00D+00 ElMax1= 8.94D-01 ElMax1N= 8.94D-01
 OrtVCM:  Ph=2 NNew=    0 IAdd=    4 IPass= 1 DotMx2= 4.86D-17
 OrtVCM:  IS=    1 I=    4 IndO=    4 Dot= 1.00D+00 DotN= 1.00D+00 ElMax1= 7.95D-01 ElMax1N= 7.95D-01
 OrtVCM:  Ph=2 NNew=    0 IAdd=    5 IPass= 1 DotMx2= 2.78D-17
 OrtVCM:  IS=    1 I=    5 IndO=    5 Dot= 1.00D+00 DotN= 1.00D+00 ElMax1= 7.82D-01 ElMax1N= 7.82D-01
 OrtVCM:  Ph=2 NNew=    0 IAdd=    6 IPass= 1 DotMx2= 1.39D-17
 OrtVCM:  IS=    1 I=    6 IndO=    6 Dot= 1.00D+00 DotN= 1.00D+00 ElMax1= 5.77D-01 ElMax1N= 5.77D-01
 OrtVCM:  Ph=1 IPass= 1 DotMx1= 8.94D-01
 OrtVCM:  Ph=1 IPass= 2 DotMx1= 1.67D-16
 OrtVCM:  IS=    1 I=    1 IndO=    7 Dot= 2.01D-01 DotN= 2.01D-01 ElMax1= 2.31D-01 ElMax1N= 2.31D-01
 OrtVCM:  Ph=2 NNew=    0 IAdd=    2 IPass= 1 DotMx2= 1.23D-32
 OrtVCM:  IS=    1 I=    2 IndO=    8 Dot= 2.01D-01 DotN= 2.01D-01 ElMax1= 2.31D-01 ElMax1N= 2.31D-01
 OrtVCM:  Ph=2 NNew=    0 IAdd=    3 IPass= 1 DotMx2= 1.29D-39
 OrtVCM:  IS=    1 I=    3 IndO=    9 Dot= 2.01D-01 DotN= 2.01D-01 ElMax1= 2.31D-01 ElMax1N= 2.31D-01
 OrtVCM:  Ph=2 NNew=    0 IAdd=    4 IPass= 1 DotMx2= 5.16D-01
 OrtVCM:  Ph=2 NNew=    0 IAdd=    4 IPass= 2 DotMx2= 6.88D-18
 OrtVCM:  IS=    1 I=    4 IndO=   10 Dot= 3.33D-01 DotN= 3.33D-01 ElMax1= 3.33D-01 ElMax1N= 3.33D-01
 OrtVCM:  Ph=2 NNew=    0 IAdd=    5 IPass= 1 DotMx2= 5.16D-01
 OrtVCM:  Ph=2 NNew=    0 IAdd=    5 IPass= 2 DotMx2= 1.67D-16
 OrtVCM:  IS=    1 I=    5 IndO=   11 Dot= 6.67D-01 DotN= 6.67D-01 ElMax1= 6.67D-01 ElMax1N= 6.67D-01
 OrtVCM:  Ph=2 NNew=    0 IAdd=    6 IPass= 1 DotMx2= 5.16D-01
 OrtVCM:  Ph=2 NNew=    0 IAdd=    6 IPass= 2 DotMx2= 5.35D-17
 OrtVCM:  IS=    1 I=    6 IndO=    0 Dot= 3.30D-33 DotN= 3.30D-33 ElMax1= 3.15D-17 ElMax1N= 3.15D-17
 SchOr2:  IPass= 1 Test2A= 1.00D-01 IOff=     0 NDo=     6 NNew=     5
 OrtVCM:  Ph=1 IPass= 1 DotMx1= 5.16D-01
 OrtVCM:  Ph=1 IPass= 2 DotMx1= 5.55D-17
 OrtVCM:  IS=    1 I=    1 IndO=   12 Dot= 5.00D-01 DotN= 5.00D-01 ElMax1= 5.00D-01 ElMax1N= 5.00D-01
 SchOr2:  IPass= 1 Test2A= 1.00D-01 IOff=     6 NDo=     1 NNew=     1
 VibFq2-Diag2:  N=      6 IV=           5 MDV=  2684351076 NE2=   447391845
 Dipole derivative wrt mode   1: -4.17535D-16  3.97894D-12  8.24239D+00
 Vibrational polarizability contributions from mode   1       0.0000000       0.0000000       8.4094301
 Dipole derivative wrt mode   2:  1.75764D+00  8.90986D-06  1.98262D-15
 Vibrational polarizability contributions from mode   2       0.0442149       0.0000000       0.0000000
 Dipole derivative wrt mode   3: -8.90983D-06  1.75765D+00  4.84416D-13
 Vibrational polarizability contributions from mode   3       0.0000000       0.0442152       0.0000000
 Dipole derivative wrt mode   4: -2.14909D-11  3.54783D-05 -9.39214D-12
 Vibrational polarizability contributions from mode   4       0.0000000       0.0000000       0.0000000
 Dipole derivative wrt mode   5: -1.87843D+00  5.47842D-06  7.92507D-16
 Vibrational polarizability contributions from mode   5       0.0087738       0.0000000       0.0000000
 Dipole derivative wrt mode   6: -5.47880D-06 -1.87830D+00  1.39621D-12
 Vibrational polarizability contributions from mode   6       0.0000000       0.0087726       0.0000000
 Diagonal vibrational polarizability:
        0.0529887       0.0529878       8.4094301
 NorSel:  MapVib=      1      2      3      4      5      6
 Harmonic frequencies (cm**-1), IR intensities (KM/Mole), Raman scattering
 activities (A**4/AMU), depolarization ratios for plane and unpolarized
 incident light, reduced masses (AMU), force constants (mDyne/A),
 and normal coordinates:
                      1                      2                      3
                     A2"                    E'                     E'
 Frequencies --    466.2689              1371.2355              1371.2357
 Red. masses --      1.2356                 1.1021                 1.1021
 Frc consts  --      0.1583                 1.2210                 1.2210
 IR Inten    --     67.9370                 3.0893                 3.0893
  Atom  AN      X      Y      Z        X      Y      Z        X      Y      Z
     1   6     0.00   0.00  -0.14    -0.09  -0.00  -0.00     0.00  -0.09  -0.00
     2   1    -0.00   0.00   0.57     0.81  -0.00   0.00    -0.00  -0.07   0.00
     3   1    -0.00  -0.00   0.57     0.15  -0.38   0.00    -0.38   0.59   0.00
     4   1     0.00  -0.00   0.57     0.15   0.38   0.00     0.38   0.59   0.00
                      4                      5                      6
                     A1'                    E'                     E'
 Frequencies --   3096.9012              3289.7886              3289.7891
 Red. masses --      1.0078                 1.1183                 1.1183
 Frc consts  --      5.6950                 7.1309                 7.1309
 IR Inten    --      0.0000                 3.5285                 3.5280
  Atom  AN      X      Y      Z        X      Y      Z        X      Y      Z
     1   6    -0.00   0.00   0.00    -0.10   0.00  -0.00    -0.00  -0.10  -0.00
     2   1    -0.00   0.58  -0.00    -0.02  -0.00   0.00    -0.00   0.81   0.00
     3   1    -0.50  -0.29  -0.00     0.61   0.36   0.00     0.36   0.19   0.00
     4   1     0.50  -0.29  -0.00     0.61  -0.36   0.00    -0.36   0.19   0.00

 -------------------
 - Thermochemistry -
 -------------------
 Temperature   298.150 Kelvin.  Pressure   1.00000 Atm.
 Atom     1 has atomic number  6 and mass  12.00000
 Atom     2 has atomic number  1 and mass   1.00783
 Atom     3 has atomic number  1 and mass   1.00783
 Atom     4 has atomic number  1 and mass   1.00783
 Molecular mass:    15.02348 amu.
 Principal axes and moments of inertia in atomic units:
                           1         2         3
     Eigenvalues --     6.42787   6.42787  12.85574
           X            0.97307   0.23052   0.00000
           Y           -0.23052   0.97307   0.00000
           Z            0.00000   0.00000   1.00000
 This molecule is an oblate symmetric top.
 Rotational symmetry number  6.
 Rotational temperatures (Kelvin)     13.47473    13.47473     6.73737
 Rotational constants (GHZ):         280.76825   280.76825   140.38413
 Zero-point vibrational energy      77070.7 (Joules/Mol)
                                   18.42035 (Kcal/Mol)
 Warning -- explicit consideration of   1 degrees of freedom as
           vibrations may cause significant error
 Vibrational temperatures:    670.86  1972.90  1972.90  4455.74  4733.27
          (Kelvin)           4733.27
 
 Zero-point correction=                           0.029355 (Hartree/Particle)
 Thermal correction to Energy=                    0.032454
 Thermal correction to Enthalpy=                  0.033398
 Thermal correction to Gibbs Free Energy=         0.011205
 Sum of electronic and zero-point Energies=            -39.809710
 Sum of electronic and thermal Energies=               -39.806610
 Sum of electronic and thermal Enthalpies=             -39.805666
 Sum of electronic and thermal Free Energies=          -39.827860
 
                     E (Thermal)             CV                S
                      KCal/Mol        Cal/Mol-Kelvin    Cal/Mol-Kelvin
 Total                   20.365              7.520             46.711
 Electronic               0.000              0.000              1.377
 Translational            0.889              2.981             34.068
 Rotational               0.889              2.981             10.477
 Vibrational             18.588              1.558              0.789
 Vibration     1          0.824              1.325              0.748
                       Q            Log10(Q)             Ln(Q)
 Total Bot       0.701925D-05         -5.153709        -11.866854
 Total V=0       0.223091D+09          8.348481         19.223089
 Vib (Bot)       0.352646D-13        -13.452661        -30.975896
 Vib (Bot)    1  0.362888D+00         -0.440227         -1.013661
 Vib (V=0)       0.112081D+01          0.049530          0.114047
 Vib (V=0)    1  0.111781D+01          0.048368          0.111370
 Electronic      0.200000D+01          0.301030          0.693147
 Translational   0.228882D+07          6.359611         14.643545
 Rotational      0.434821D+02          1.638311          3.772349
 
                                                               comment:
                                                             IR Spectrum
 
      3      3                                                                  1                                                    
      2      0                                                                  3                                  4                 
      9      9                                                                  7                                  6                 
      0      7                                                                  1                                  6                 
 
      X                                                                         X                                  X                 
      X                                                                         X                                  X                 
                                                                                                                   X                 
                                                                                                                   X                 
                                                                                                                   X                 
                                                                                                                   X                 
                                                                                                                   X                 
                                                                                                                   X                 
                                                                                                                   X                 
                                                                                                                   X                 
                                                                                                                   X                 
                                                                                                                   X                 
                                                                                                                   X                 
                                                                                                                   X                 
                                                                                                                   X                 
                                                                                                                   X                 
                                                                                                                   X                 
                                                                                                                   X                 
                                                                                                                   X                 
                                                                                                                   X                 
 
 Forces in standard orientation:
 -------------------------------------------------------------------
 Center     Atomic                   Forces (Hartrees/Bohr)
 Number     Number              X              Y              Z
 -------------------------------------------------------------------
      1        6           0.000000000    0.000000000   -0.000000000
      2        1          -0.000000000    0.000291250   -0.000000000
      3        1          -0.000252230   -0.000145625    0.000000000
      4        1           0.000252230   -0.000145625   -0.000000000
 -------------------------------------------------------------------
 ***** Axes restored to original set *****
 Rotating derivatives, DoTrsp=F IDiff=-2 LEDeriv=    628 LFDPrp=       0 LDFDPr=       0.
 -------------------------------------------------------------------
 Center     Atomic                   Forces (Hartrees/Bohr)
 Number     Number              X              Y              Z
 -------------------------------------------------------------------
      1        6           0.000000000   -0.000000000   -0.000000000
      2        1           0.000000000   -0.000291250   -0.000000000
      3        1          -0.000252230    0.000145625    0.000000000
      4        1           0.000252230    0.000145625   -0.000000000
 -------------------------------------------------------------------
 Cartesian Forces:  Max     0.000291250 RMS     0.000145625
 Z-matrix is all fixed cartesians, so copy forces.
 Force constants in Cartesian coordinates: 
                1             2             3             4             5 
      1  0.609791D+00
      2  0.000000D+00  0.609793D+00
      3  0.000000D+00  0.000000D+00  0.198721D-01
      4 -0.512489D-01  0.000000D+00  0.000000D+00  0.431298D-01
      5  0.000000D+00 -0.355279D+00  0.000000D+00  0.000000D+00  0.367698D+00
      6  0.000000D+00  0.000000D+00 -0.662285D-02  0.000000D+00  0.000000D+00
      7 -0.279271D+00  0.131649D+00  0.000000D+00  0.405956D-02 -0.468682D-02
      8  0.131649D+00 -0.127257D+00  0.000000D+00  0.224731D-01 -0.620937D-02
      9  0.000000D+00  0.000000D+00 -0.662373D-02  0.000000D+00  0.000000D+00
     10 -0.279271D+00 -0.131649D+00  0.000000D+00  0.405957D-02  0.468683D-02
     11 -0.131649D+00 -0.127257D+00  0.000000D+00 -0.224731D-01 -0.620938D-02
     12  0.000000D+00  0.000000D+00 -0.662373D-02  0.000000D+00  0.000000D+00
                6             7             8             9            10 
      6  0.230191D-02
      7  0.000000D+00  0.286556D+00
      8  0.000000D+00 -0.140542D+00  0.124272D+00
      9  0.216047D-02  0.000000D+00  0.000000D+00  0.230191D-02
     10  0.000000D+00 -0.113438D-01 -0.135800D-01  0.000000D+00  0.286556D+00
     11  0.000000D+00  0.135800D-01  0.919403D-02  0.000000D+00  0.140542D+00
     12  0.216047D-02  0.000000D+00  0.000000D+00  0.216047D-02  0.000000D+00
               11            12 
     11  0.124272D+00
     12  0.000000D+00  0.230191D-02
 Final forces over variables, Energy=-3.98390643D+01:
  2.83616473D-15 8.00871614D-11-2.52229789D-04 2.52229709D-04
 -9.61957598D-16-2.91249827D-04 1.45624844D-04 1.45624983D-04
 -1.07616125D-22-1.04902428D-17 1.05817725D-17-9.14221343D-20
 Leave Link  716 at Thu Sep  5 22:26:51 2019, MaxMem=  2684354560 cpu:         0.3
 (Enter /soft/gaussian/09-e.01/g09/l103.exe)

 GradGradGradGradGradGradGradGradGradGradGradGradGradGradGradGradGradGrad
 Berny optimization.
 Search for a local minimum.
 Step number   1 out of a maximum of    2
 All quantities printed in internal units (Hartrees-Bohrs-Radians)
 Second derivative matrix not updated -- analytic derivatives used.
 The second derivative matrix:
                          X1        Y1        Z1        X2        Y2
           X1           0.60979
           Y1          -0.00000   0.60979
           Z1           0.00000  -0.00000   0.01987
           X2          -0.05125   0.00000  -0.00000   0.04313
           Y2           0.00000  -0.35528  -0.00000  -0.00000   0.36770
           Z2          -0.00000   0.00000  -0.00662   0.00000   0.00000
           X3          -0.27927   0.13165  -0.00000   0.00406  -0.00469
           Y3           0.13165  -0.12726   0.00000   0.02247  -0.00621
           Z3           0.00000  -0.00000  -0.00662  -0.00000   0.00000
           X4          -0.27927  -0.13165   0.00000   0.00406   0.00469
           Y4          -0.13165  -0.12726   0.00000  -0.02247  -0.00621
           Z4          -0.00000  -0.00000  -0.00662   0.00000   0.00000
                          Z2        X3        Y3        Z3        X4
           Z2           0.00230
           X3           0.00000   0.28656
           Y3          -0.00000  -0.14054   0.12427
           Z3           0.00216   0.00000  -0.00000   0.00230
           X4          -0.00000  -0.01134  -0.01358  -0.00000   0.28656
           Y4          -0.00000   0.01358   0.00919  -0.00000   0.14054
           Z4           0.00216   0.00000  -0.00000   0.00216  -0.00000
                          Y4        Z4
           Y4           0.12427
           Z4          -0.00000   0.00230
 ITU=  0
     Eigenvalues ---    0.02186   0.09708   0.09708   0.36579   0.80363
     Eigenvalues ---    0.80363
 Angle between quadratic step and forces=   0.00 degrees.
 ClnCor:  largest displacement from symmetrization is 3.41D-11 for atom     4.
 Linear search not attempted -- first point.
 ClnCor:  largest displacement from symmetrization is 1.40D-15 for atom     3.
 B after Tr=    -0.000000    0.000000   -0.000000
         Rot=    1.000000    0.000000    0.000000    0.000000 Ang=   0.00 deg.
 Variable       Old X    -DE/DX   Delta X   Delta X   Delta X     New X
                                 (Linear)    (Quad)   (Total)
    X1        0.00000   0.00000   0.00000  -0.00000  -0.00000  -0.00000
    Y1       -0.00000  -0.00000   0.00000  -0.00000   0.00000  -0.00000
    Z1        0.00000  -0.00000   0.00000  -0.00000  -0.00000  -0.00000
    X2       -0.00000   0.00000   0.00000   0.00000   0.00000  -0.00000
    Y2        2.06203  -0.00029   0.00000  -0.00080  -0.00080   2.06124
    Z2       -0.00000  -0.00000   0.00000   0.00000  -0.00000  -0.00000
    X3        1.78577  -0.00025   0.00000  -0.00069  -0.00069   1.78508
    Y3       -1.03102   0.00015   0.00000   0.00040   0.00040  -1.03062
    Z3        0.00000   0.00000   0.00000  -0.00000   0.00000   0.00000
    X4       -1.78577   0.00025   0.00000   0.00069   0.00069  -1.78508
    Y4       -1.03102   0.00015   0.00000   0.00040   0.00040  -1.03062
    Z4       -0.00000  -0.00000   0.00000   0.00000  -0.00000  -0.00000
         Item               Value     Threshold  Converged?
 Maximum Force            0.000291     0.000450     YES
 RMS     Force            0.000146     0.000300     YES
 Maximum Displacement     0.000796     0.001800     YES
 RMS     Displacement     0.000398     0.001200     YES
 Predicted change in Energy=-3.478495D-07
 Optimization completed.
    -- Stationary point found.
 GradGradGradGradGradGradGradGradGradGradGradGradGradGradGradGradGradGrad

 Leave Link  103 at Thu Sep  5 22:26:51 2019, MaxMem=  2684354560 cpu:         0.2
 (Enter /soft/gaussian/09-e.01/g09/l9999.exe)

 Test job not archived.
 1\1\GINC-B442\Freq\UB3LYP\CC-pVDZ\C1H3(2)\ELLIOTT\05-Sep-2019\0\\#P b3
 lyp/cc-pvdz # SCF=(xqc) # Freq=() # IOp(7/33=1) # int=ultrafine\\comme
 nt:\\0,2\C,0.,0.,0.\H,-0.0000003001,1.09118,0.\H,0.9449897501,-0.54558
 97401,0.\H,-0.9449894501,-0.5455902599,0.\\Version=ES64L-G09RevE.01\St
 ate=2-A2"\HF=-39.8390643\S2=0.75371\S2-1=0.\S2A=0.750007\RMSD=4.451e-0
 9\RMSF=1.456e-04\ZeroPoint=0.0293547\Thermal=0.0324543\Dipole=0.,0.,0.
 \DipoleDeriv=0.0088464,0.,0.,0.,0.0088382,0.,0.,0.,-0.4102427,0.044694
 1,0.,0.,0.,-0.0505836,0.,0.,0.,0.1367438,-0.0267672,0.041257,0.,0.0412
 574,0.0208737,0.,0.,0.,0.1367466,-0.0267672,-0.041257,0.,-0.0412574,0.
 0208737,0.,0.,0.,0.1367466\Polar=12.5779598,0.,12.5778375,0.,0.,6.8275
 057\PG=D03H [O(C1),3C2(H1)]\NImag=0\\0.60979080,0.,0.60979260,0.,0.,0.
 01987207,-0.05124892,0.00000008,0.,0.04312984,0.00000008,-0.35527928,0
 .,-0.00000009,0.36769799,0.,0.,-0.00662285,0.,0.,0.00230191,-0.2792713
 9,0.13164891,0.,0.00405956,-0.00468682,0.,0.28655603,0.13164871,-0.127
 25651,0.,0.02247314,-0.00620937,0.,-0.14054209,0.12427180,0.,0.,-0.006
 62373,0.,0.,0.00216047,0.,0.,0.00230191,-0.27927124,-0.13164899,0.,0.0
 0405957,0.00468683,0.,-0.01134384,-0.01357999,0.,0.28655588,-0.1316487
 9,-0.12725666,0.,-0.02247314,-0.00620938,0.,0.01357998,0.00919403,0.,0
 .14054218,0.12427195,0.,0.,-0.00662373,0.,0.,0.00216047,0.,0.,0.002160
 47,0.,0.,0.00230191\\0.,0.,0.,0.,0.00029125,0.,0.00025223,-0.00014562,
 0.,-0.00025223,-0.00014562,0.\\\@


 NEVER TEACH A PIG TO SING.
 IT WASTES YOUR TIME AND ANNOYS THE PIG.
     -- SEEN ON A GREETING CARD
 Job cpu time:       0 days  0 hours  0 minutes 26.5 seconds.
 File lengths (MBytes):  RWF=     87 Int=      0 D2E=      0 Chk=      2 Scr=      2
 Normal termination of Gaussian 09 at Thu Sep  5 22:26:51 2019.
