[Molden Format]
[Molpro variables]
_NUMVAR=  700.0000000000000    
_EV2006= 0.3674930886769165E-01
_EV= 0.3674932534394180E-01
_KJOULE= 0.3808798324128737E-03
_KJOULE/MOL= 0.3808798324128737E-03
_CM= 0.4556335267302901E-05
_CM-1= 0.4556335267302901E-05
_KCAL= 0.1593601117815568E-02
_KCAL/MOL= 0.1593601117815568E-02
_KELVIN2006= 0.3166828861084835E-05
_KELVIN= 0.3166814820820034E-05
_HERTZ2006= 0.1519829850815779E-15
_HERTZ= 0.1519829846011223E-15
_HZ2006= 0.1519829850815779E-15
_HZ= 0.1519829846011223E-15
_TOA2006= 0.5291772490000000    
_TOA= 0.5291772090000000    
_TOANG2006= 0.5291772490000000    
_TOANG= 0.5291772090000000    
_TORAD= 0.1745329251994330E-01
_TOCM=  219474.6306700000    
_TODEBYE=  2.541580000000000    
_TOEV2006=  27.21139610000000    
_TOEV=  27.21138390000000    
_TOHERTZ2006=  6579683899900000.    
_TOHERTZ=  6579683920700000.    
_TOHZ2006=  6579683899900000.    
_TOHZ=  6579683920700000.    
_TOK2006=  315773.3000000000    
_TOK=  315774.7000000000    
_TOKCAL=  627.5096000000000    
_TOKELVIN2006=  315773.3000000000    
_TOKELVIN=  315774.7000000000    
_TOKJ=  2625.500000000000    
_TOKJOULE=  2625.500000000000    
_ANG2006=  1.889725988578923    
_ANG=  1.889726131421507    
_ANGSTROM2006=  1.889725988578923    
_ANGSTROM=  1.889726131421507    
_IGNORE_UNDEF=  2.000000000000000    
_STRICTCHECK=  0.000000000000000    
_SEW_ONEEL=  0.000000000000000    
_CPPDONE=FALSE
_DKROLL_DONE=  0.000000000000000    
_FOCKDONE=  0.000000000000000    
_GRADONE=FALSE
_HESSDONE=TRUE
_INTDONE=TRUE
_SCFDONE=FALSE
_MODUL_CUDA=FALSE
_MODUL_SLATER=FALSE
_MODUL_MRCC=FALSE
_MRCC_EXEC=
_FITC_AO_SAVED=FALSE
_FITC_MO_SAVED=FALSE
_SHARED_FS=TRUE
_LSTYP=SEWARD
_INTYP=INTS
_GEOMTYP=ZMAT
_GRADTYP=ALASKA
_DIRECT=FALSE
_SYNCM=  0.000000000000000    
_BASIS=CC-PVDZ
_ZORIENT=  1.000000000000000    
_NELEC=  10.00000000000000    
_SPIN=  0.000000000000000    
!SPIN=  0.000000000000000    
_OPTCONV= 0.2045812678823315E-02
_QSDSTEP=  0.000000000000000    
_QSDIRC=  0.000000000000000    
_PROGRAM=FREQ
_CPUSTEP=  0.000000000000000    
_SYSSTEP=  0.000000000000000    
_WALLSTEP= 0.9000000000000000E-01
!DFMP2=  0.000000000000000    
!DFSCF=  0.000000000000000    
!SCSGRD=  0.000000000000000    
_BASINP=  610.0000000000000    
_CPUTOT=  57.41000000000000    
_DFTEXFAC=  1.000000000000000    
_DMX= 0.3066634000017728E-05
_DMY= 0.5433229771596735E-06
_DMZ= 0.6120860563533181E-01
_FREQUENCIES= -305.8011079889648    
_EMP2= -40.19492257798808    
_ENERGR= -40.06010974805916    
_ENERGU= -40.22262461806412    
_ENERGY= -40.19492257798808    
_ENUC=  10.95758901741975    
_FREQSTEP=  31.00000000000000    
!RS2GRSTATE=  1.000000000000000    
!RS2GRSYM=  1.000000000000000    
_GRADENERG= -40.19489857354455    
_GRADEXFAC=  9999.000000000000    
_GRADMETHOD=TRUE
_GRADRECORD=  5200.100000000000    
_VIRIAL= 0.1490560120907241E-01
!GRID_FREEZE= -1.000000000000000    
_ITERATIONS=  0.000000000000000    
_LASTNELEC=  2.000000000000000    
_LASTSPIN=  0.000000000000000    
_LASTSYM=  1.000000000000000    
_MPP_PROG=  1.000000000000000    
_MSENERGY= -40.19492257798808    
_NPROC_MPP=  4.000000000000000    
_NPROC_SMP=  1.000000000000000    
_NUMSTEP=  0.000000000000000    
_OPTCONVMX= 0.1587934570168360E-02
_OPTCONVRMS= 0.2557265848529144E-03
_OPTGRAD= 0.1493741443004971E-03
_OPTGRADMX= 0.7651517141104110E-04
_OPTGRADRMS= 0.1867176803756214E-04
_OPTSTEP=  3.000000000000000    
_ORBITAL=  2142.200000000000    
_PI=  3.141592653589793    
!MCACT=  2.000000000000000    
!MCCLOSED=  4.000000000000000    
!MCFREEZE=  0.000000000000000    
!MCMS2=  0.000000000000000    
!MCNEL=  2.000000000000000    
!MCNSTSYM=  1.000000000000000    
!MCSTATE=  1.000000000000000    
!MCSYM=  1.000000000000000    
!MCWEIGHT=  1.000000000000000    
_SEIG_MIN= 0.1528847846802226E-01
_SEWPROP=TRUE
_STATUS=  1.000000000000000    
_SYSTOT=  3.470000000000000    
_VERSION=  2010001.000000000    
_WALLTOT=  325.8400000000000    
_ZPE= 0.3075168255172240E-01
_DATE=30-Aug-19
_LASTORB=MCSCF
_MACHINE=Linux-2.6.34-12-desktop/tt109(x86_64) 64 bit mpp version
_OUTPUT=/home/carlo/qm/combustion/test_diss/newalg/ch4_ch3_h_vrc_test1/dist_3.4/molpro.xml
_PGROUP=C1
_TIME=06:37:11
_LIBMOL=/programs/molpro2010p/bin/../lib/
!SURFREC=  0.000000000000000    
!POLYREC=  0.000000000000000    
!DIPREC=  0.000000000000000    
!VSCFREC=  0.000000000000000    
!VCIREC=  0.000000000000000    
!PVCIREC=  0.000000000000000    
!VMP2REC=  0.000000000000000    
!VMCSCFREC=  0.000000000000000    
!GAREC=  0.000000000000000    
!SCFORB=  21002.00000000000    
!MCORB=  21422.00000000000    
!CIOCC=  6.000000000000000    
!CICORE=  1.000000000000000    
!CICLOS=  4.000000000000000    
!CIISTSYM=  1.000000000000000    
!CIISTMS2=  0.000000000000000    
!CIISTNEL=  8.000000000000000    
!NEWMOL=  0.000000000000000    
!NEWSYM=  0.000000000000000    
_SLFILES=slscratch
_NGSSTO=  9.000000000000000    
_SIN=SIN
_COS=COS
_TAN=TAN
_ACOS=ACOS
_ASIN=ASIN
_ATAN=ATAN
_COSH=COSH
_SINH=SINH
_TANH=TANH
_ABS=ABS
_MOD=MOD
_ERF=ERF
_REFC=REFC
_ERFC=ERFC
_HYPOT=HYPOT
_J0=J0
_J1=J1
_JN=JN
_GAMMA=GAMMA
_LGAMMA=LGAMMA
_Y0=Y0
_Y1=Y1
_YN=YN
_EXP=EXP
_LOG=LOG
_LOG10=LOG10
_SQRT=SQRT
_INT=INT
_NINT=NINT
_MAX=MAX
_MIN=MIN
_COSMO=  0.000000000000000    
_COSMOIT=  0.000000000000000    
_COSMOES=  0.000000000000000    
_COSMOEDS=  0.000000000000000    
_COSMOEC=  0.000000000000000    
_COSMOEDCORR=  0.000000000000000    
_FEPSI=  1.000000000000000    
_SL_IsMM=  0.000000000000000    
_SL_NSYM=  0.000000000000000    
_SL_System_BitSw=  0.000000000000000    
_SL_Unique_atoms=  0.000000000000000    
_SL_GRAD=  0.000000000000000    
_SL_MAXUPD_Hess=  5.000000000000000    
_SL_N_PRINT_COD=  5.000000000000000    
_SL_PRINT_CODES=  0.000000000000000    
_SL_BasType=  0.000000000000000    
_SL_Energy_Pred=  0.000000000000000    
_SL_New_Coords=  0.000000000000000    
_SL_Total_Nuclea=  0.000000000000000    
_SL_Highest_Mltp=  0.000000000000000    
_SL_Ref_Geom=  0.000000000000000    
!LATTICE= -1.000000000000000    
!NEWLATTICE=  0.000000000000000    
!LATGRAD_VAR=FALSE
!SEW_LATTICE=  1.000000000000000    
!LOCAL=  0.000000000000000    
!SAVEDOM= -1.000000000000000    
!RESTDOM= -1.000000000000000    
!SAVEDOM_HF= -1.000000000000000    
!RESTDOM_HF= -1.000000000000000    
!HESSREC=  5300.200000000000    
!FREQREC=  5400.200000000000    
!NMODREC=  5450.200000000000    
!GTASKS=  0.000000000000000    
!HTASKS=  5500.200000000000    
!THRCHG= 0.1000000000000000    
!DEBUG= -1.000000000000000    
!CFIT_CPHF=  0.000000000000000    
!RDOMAUX_CPHF=  3.000000000000000    
!THRAO_CPHF= 0.1000000000000000E-09
!THRMO_CPHF= 0.1000000000000000E-09
!THROV_CPHF= 0.1000000000000000E-11
!THRSW_CPHF= 0.1000000000000000E-09
!THRPROD_CPHF= 0.1000000000000000E-09
!THRAOPR_CPHF= 0.1000000000000000E-11
!CFIT_SCFGRD=  0.000000000000000    
!RDOMAUX_SCFGRD=  5.000000000000000    
!THRAO_SCFGRD= 0.1000000000000000E-09
!THRMO_SCFGRD= 0.1000000000000000E-09
!THROV_SCFGRD= 0.1000000000000000E-11
!THRSW_SCFGRD= 0.1000000000000000E-09
!THRPROD_SCFGRD= 0.1000000000000000E-09
!THRAOPR_SCFGRD= 0.1000000000000000E-11
!LOCFIT_SCF=  0.000000000000000    
!LOCFIT_MP2= -1.000000000000000    
_RIDOM=  0.000000000000000    
!CC2_METHOD=  0.000000000000000    
_BASIS2006=FALSE
_SVDDEL= -1.000000000000000    
_SVDDELA= -1.000000000000000    
_SVDDELP= -1.000000000000000    
_SVDDELF= -1.000000000000000    
_SVDDELS= -1.000000000000000    
_SVDDEL_ABS= -1.000000000000000    
_SVDDELA_ABS= -1.000000000000000    
_SVDDELP_ABS= -1.000000000000000    
_SVDDELF_ABS= -1.000000000000000    
_SVDDELS_ABS= -1.000000000000000    
_MAXBASIS=  0.000000000000000    
!OPT_CONICAL=  0.000000000000000    
!CLEARSP_JGRID=  0.000000000000000    
RCH1=  1.089911931332443    
RCH2=  1.089911815112580    
RCH3=  1.089911977659495    
AHCC1=  119.9902374523316    
AHCC2=  119.9898573872782    
AHCC3=  90.57115628961012    
B1=  178.0064655353570    
B2= -90.99135772790133    
RCH4=  3.400000000000000    
GX1= 0.9474729629760457E-05
GY1= 0.1421533434322903E-05
GZ1= 0.3997768104946707    
GX2=  1.026288784611909    
GY2=  1.785618146602788    
GZ2= 0.4202770471166191    
GX3=  1.033255394646880    
GY3= -1.781591942205609    
GZ3= 0.4203588659658307    
GX4= -2.059514832627545    
GY4=-0.4020172288153656E-02
GZ4= 0.4207621685524846    
GX5=-0.1422511469720104E-03
GY5=-0.2297164717254135E-04
GZ5= -6.025292034500668    
C1X1= 0.9474729629760023E-05
C1Y1= 0.1421533434322469E-05
C1Z1= 0.3997768104946707    
H2X2=  1.026288784611909    
H2Y2=  1.785618146602788    
H2Z2= 0.4202770471166191    
H3X3=  1.033255394646880    
H3Y3= -1.781591942205609    
H3Z3= 0.4203588659658307    
H4X4= -2.059514832627545    
H4Y4=-0.4020172288153656E-02
H4Z4= 0.4207621685524846    
H5X5=-0.1422511469720104E-03
H5Y5=-0.2297164717254135E-04
H5Z5= -6.025292034500668    
CBSEN= -40.19492257798808    
[Atoms] Angs
C     1    6         0.0000050138        0.0000007522        0.2115527768
H     2    1         0.5430886347        0.9449084272        0.2224010348
H     3    1         0.5467752059       -0.9427778516        0.2224443315
H     4    1        -1.0898483110       -0.0021273836        0.2226577500
H     5    1        -0.0000752761       -0.0000121561       -3.1884472222
[GTO]
  1 0
 s    9  1.00
  0.6665000000D+04  0.6920001793D-03
  0.1000000000D+04  0.5329001381D-02
  0.2280000000D+03  0.2707700701D-01
  0.6471000000D+02  0.1017180264D+00
  0.2106000000D+02  0.2747400712D+00
  0.7495000000D+01  0.4485641162D+00
  0.2797000000D+01  0.2850740738D+00
  0.5215000000D+00  0.1520400394D-01
  0.1596000000D+00 -0.3191000827D-02
 s    9  1.00
  0.6665000000D+04 -0.1460000642D-03
  0.1000000000D+04 -0.1154000508D-02
  0.2280000000D+03 -0.5725002519D-02
  0.6471000000D+02 -0.2331201026D-01
  0.2106000000D+02 -0.6395502813D-01
  0.7495000000D+01 -0.1499810660D+00
  0.2797000000D+01 -0.1272620560D+00
  0.5215000000D+00  0.5445292395D+00
  0.1596000000D+00  0.5804962554D+00
 s    9  1.00
  0.6665000000D+04  0.0000000000D+00
  0.1000000000D+04  0.0000000000D+00
  0.2280000000D+03  0.0000000000D+00
  0.6471000000D+02  0.0000000000D+00
  0.2106000000D+02  0.0000000000D+00
  0.7495000000D+01  0.0000000000D+00
  0.2797000000D+01  0.0000000000D+00
  0.5215000000D+00  0.0000000000D+00
  0.1596000000D+00  0.1000000000D+01
 p    4  1.00
  0.9439000000D+01  0.3810902127D-01
  0.2002000000D+01  0.2094801169D+00
  0.5456000000D+00  0.5085572839D+00
  0.1517000000D+00  0.4688422617D+00
 p    4  1.00
  0.9439000000D+01  0.0000000000D+00
  0.2002000000D+01  0.0000000000D+00
  0.5456000000D+00  0.0000000000D+00
  0.1517000000D+00  0.1000000000D+01
 d    1  1.00
  0.5500000000D+00  0.1000000000D+01
  
  2 0
 s    4  1.00
  0.1301000000D+02  0.1968498999D-01
  0.1962000000D+01  0.1379769298D+00
  0.4446000000D+00  0.4781477569D+00
  0.1220000000D+00  0.5012397451D+00
 s    4  1.00
  0.1301000000D+02  0.0000000000D+00
  0.1962000000D+01  0.0000000000D+00
  0.4446000000D+00  0.0000000000D+00
  0.1220000000D+00  0.1000000000D+01
 p    1  1.00
  0.7270000000D+00  0.1000000000D+01
  
  3 0
 s    4  1.00
  0.1301000000D+02  0.1968498999D-01
  0.1962000000D+01  0.1379769298D+00
  0.4446000000D+00  0.4781477569D+00
  0.1220000000D+00  0.5012397451D+00
 s    4  1.00
  0.1301000000D+02  0.0000000000D+00
  0.1962000000D+01  0.0000000000D+00
  0.4446000000D+00  0.0000000000D+00
  0.1220000000D+00  0.1000000000D+01
 p    1  1.00
  0.7270000000D+00  0.1000000000D+01
  
  4 0
 s    4  1.00
  0.1301000000D+02  0.1968498999D-01
  0.1962000000D+01  0.1379769298D+00
  0.4446000000D+00  0.4781477569D+00
  0.1220000000D+00  0.5012397451D+00
 s    4  1.00
  0.1301000000D+02  0.0000000000D+00
  0.1962000000D+01  0.0000000000D+00
  0.4446000000D+00  0.0000000000D+00
  0.1220000000D+00  0.1000000000D+01
 p    1  1.00
  0.7270000000D+00  0.1000000000D+01
  
  5 0
 s    4  1.00
  0.1301000000D+02  0.1968498999D-01
  0.1962000000D+01  0.1379769298D+00
  0.4446000000D+00  0.4781477569D+00
  0.1220000000D+00  0.5012397451D+00
 s    4  1.00
  0.1301000000D+02  0.0000000000D+00
  0.1962000000D+01  0.0000000000D+00
  0.4446000000D+00  0.0000000000D+00
  0.1220000000D+00  0.1000000000D+01
 p    1  1.00
  0.7270000000D+00  0.1000000000D+01
 
 
[MO]
 Sym=      1.1
 Ene=     -11.2355
 Spin= Alpha
 Occup=    2.000000
1 1.00131712455054
2 0.007666562661992
3 -0.007680233642003
4 0.000000001656646
5 0.000000000145624
6 0.000032538442684
7 0.000000004962336
8 0.000000000175512
9 -0.000003203151229
10 0.000353597320065
11 0.000353609051660
12 -0.000707206371725
13 -0.000000000449096
14 -0.000000175126951
15 -0.000000028282068
16 -0.000649388836608
17 0.001539988455775
18 0.000257627741090
19 0.000448238680823
20 0.000008249336813
21 -0.000649390739397
22 0.001539990689259
23 0.000259376569815
24 -0.000447228738484
25 0.000008269842484
26 -0.000649384047785
27 0.001539993254000
28 -0.000516995662664
29 -0.000001009526734
30 0.000008370780048
31 -0.000129583954933
32 0.000185638294872
33 -0.000000001129339
34 -0.000000000186783
35 0.000011116639928
 Sym=      2.1
 Ene=      -0.8961
 Spin= Alpha
 Occup=    2.000000
1 -0.026486428938362
2 0.75923576882857
3 -0.14199346604739
4 0.000000273986936
5 0.000000076026889
6 0.005309483759430
7 0.000000131805150
8 -0.000000004439058
9 -0.001023686217809
10 0.001883245887235
11 0.001883252302672
12 -0.003766498189907
13 -0.000000001272951
14 -0.000000927334964
15 -0.000000149818146
16 0.34652388224472
17 -0.14326097999282
18 -0.013939703189902
19 -0.024253581443302
20 -0.000122668391464
21 0.34652400608956
22 -0.14326103195209
23 -0.014034335018183
24 0.024198947103555
25 -0.000123781435285
26 0.34652429277920
27 -0.14326100870769
28 0.027974044482346
29 0.000054626138173
30 -0.000129267116272
31 0.002902751093715
32 0.001023059187924
33 0.000000002043139
34 0.000000000340360
35 0.000423584629107
 Sym=      3.1
 Ene=      -0.5682
 Spin= Alpha
 Occup=    2.000000
1 -0.000000000776742
2 -0.000000017116658
3 -0.000000026489770
4 0.020028555523586
5 -0.63712885427679
6 0.000011883016571
7 -0.003669919088214
8 0.11674358245340
9 -0.000002182446259
10 -0.000521444811471
11 0.000521420174004
12 0.000000024637467
13 -0.023545836356614
14 0.000025084902637
15 -0.000774490974687
16 -0.54129833243576
17 0.15229600495270
18 0.015206719275852
19 0.013479237592031
20 0.000215706876028
21 0.56004401790311
22 -0.15757015575859
23 -0.015050350904153
24 0.014312088186461
25 -0.000223933749848
26 -0.018745740791746
27 0.005274166983521
28 -0.000643098155819
29 -0.012307801487480
30 0.000007934576011
31 -0.000000089245417
32 -0.000000011831995
33 0.000007506998645
34 -0.000238853108880
35 -0.000000012659826
 Sym=      4.1
 Ene=      -0.5682
 Spin= Alpha
 Occup=    2.000000
1 -0.000000016126578
2 0.000000768877858
3 0.000000136179640
4 0.63712885427874
5 0.020028542856571
6 -0.000091807814970
7 -0.11674314069760
8 -0.003669883360787
9 0.000016862360196
10 -0.020391190573180
11 0.020391357554353
12 -0.000000166981173
13 0.000602128260076
14 0.000781224205113
15 0.000023819964918
16 0.33416426025898
17 -0.094017946762379
18 0.003156929043554
19 -0.015531201927668
20 -0.000134796145505
21 0.30169576561142
22 -0.084882844324899
23 0.003989794356061
24 0.014725849737619
25 -0.000122530551553
26 -0.63586030859004
27 0.17890082220110
28 -0.022629997019010
29 0.000318620991821
30 0.000259583932308
31 0.000000689993749
32 0.000000096689198
33 0.000238840290971
34 0.000007509643460
35 0.000000098488664
 Sym=      5.1
 Ene=      -0.1754
 Spin= Alpha
 Occup=    1.174342
1 -0.000566571797754
2 0.001486195844460
3 0.001502296934931
4 0.000089666022639
5 0.000014482985022
6 0.60824122439387
7 0.000010322729453
8 0.000001669580955
9 0.071529088262256
10 0.000879911668810
11 0.000880145740730
12 -0.001760057409540
13 0.000000020371411
14 -0.000000385675825
15 -0.000000059487217
16 0.008473449987017
17 -0.004841821860435
18 -0.000122939634464
19 -0.000216984598344
20 0.013655792273642
21 0.008472903961326
22 -0.004841631165829
23 -0.000123777698135
24 0.000217109072740
25 0.013655753469063
26 0.008470185605170
27 -0.004840694883560
28 0.000252470298901
29 0.000000804606548
30 0.013655528335263
31 -0.67771161267686
32 -0.024251055693412
33 -0.000000047613012
34 -0.000000007769162
35 -0.000787110786653
 Sym=      6.1
 Ene=      -0.1101
 Spin= Alpha
 Occup=    0.825658
1 0.001334361793143
2 -0.013621881171980
3 -0.011722118481903
4 0.000092318350964
5 0.000014911163177
6 0.65602065494241
7 0.000010534811746
8 0.000001700798594
9 0.075846156289826
10 0.000128751830972
11 0.000128532836510
12 -0.000257284667482
13 -0.000000019372901
14 -0.000000024138945
15 -0.000000000709056
16 -0.000347884865746
17 0.002112852770725
18 0.000030215175600
19 0.000049455807417
20 0.013661090960465
21 -0.000347323067540
22 0.002112701246082
23 0.000030398930610
24 -0.000048693227394
25 0.013661109406494
26 -0.000344554842380
27 0.002111948598657
28 -0.000054604381624
29 0.000000208664740
30 0.013661163182803
31 0.74033644935227
32 -0.026603413353500
33 0.000000042577986
34 0.000000006971686
35 -0.002012311502873
 Sym=      7.1
 Ene=       0.2003
 Spin= Alpha
 Occup=    0.000000
1 -0.080430955271976
2 0.22210889965182
3 2.04970155585782
4 -0.000000327636241
5 0.000000010031221
6 0.009174385020072
7 -0.000003260322992
8 -0.000000253663288
9 0.006142108470640
10 0.013435095128474
11 0.013435155224603
12 -0.026870250353077
13 -0.000000018011558
14 -0.000006699237585
15 -0.000001081482616
16 -0.057209085234774
17 -1.00663873045061
18 0.008825025755484
19 0.015354342786270
20 0.000594086553074
21 -0.057208860035688
22 -1.00664056959562
23 0.008884947140993
24 -0.015319756060773
25 0.000594790434438
26 -0.057207163983178
27 -1.00665000732430
28 -0.017709761824130
29 -0.000034572725567
30 0.000598256984548
31 0.084873018609131
32 -0.046847631441150
33 -0.000000736662803
34 -0.000000119419582
35 -0.004687886391219
 Sym=      8.1
 Ene=       0.2696
 Spin= Alpha
 Occup=    0.000000
1 0.000000043640161
2 -0.000000065212843
3 -0.000000713899709
4 -0.002231421965188
5 -0.44596748776450
6 0.000010514852837
7 -0.006203931555749
8 -1.23993046206216
9 0.000029917343255
10 0.000229921932525
11 -0.000229963773945
12 0.000000041841420
13 -0.024441223860468
14 -0.000004896241669
15 -0.001080729701569
16 0.021383972952998
17 1.87544255831326
18 -0.010121302029219
19 -0.021647084664252
20 -0.000083488367856
21 -0.021212636496918
22 -1.86043744570691
23 0.010067750057330
24 -0.021467208089706
25 0.000083785061388
26 -0.000171026694735
27 -0.015004202930724
28 -0.000182552226774
29 -0.004072668555944
30 0.000000789932119
31 -0.000002638893922
32 0.000001190563542
33 0.000012063042906
34 0.002388233009917
35 0.000000160637536
 Sym=      9.1
 Ene=       0.2696
 Spin= Alpha
 Occup=    0.000000
1 0.000000224931501
2 -0.000000973728921
3 -0.000005158886660
4 -0.44596792994318
5 0.002231402589882
6 0.000063081580567
7 -1.23992708829802
8 0.006204109144843
9 0.000179499779639
10 0.021166417979455
11 -0.021166570295672
12 0.000000152316217
13 0.000265481852232
14 -0.001087755383210
15 0.000005954090439
16 0.012150401410286
17 1.06546104668290
18 -0.009810999596955
19 -0.009963913861355
20 -0.000046979485091
21 0.012446671341927
22 1.09145017795277
23 -0.009990887200806
24 0.010225163055827
25 -0.000048606213500
26 -0.024593866714906
27 -2.15690621293608
28 -0.027385228521442
29 -0.000025150092923
30 0.000102105769941
31 -0.000015718828451
32 0.000007031717666
33 0.002386656212639
34 -0.000011828242498
35 0.000000961302923
 Sym=     10.1
 Ene=       0.6159
 Spin= Alpha
 Occup=    0.000000
1 0.000689814332031
2 0.001591161604981
3 -0.005358812338762
4 0.44616343131975
5 0.006722610961934
6 -0.005711700831042
7 -1.64234828861660
8 -0.024746544971576
9 0.005976676312774
10 -0.10846727108815
11 0.10939745449197
12 -0.000930183403811
13 0.001158297571592
14 0.001828452856492
15 0.000024166608936
16 0.68570621763771
17 -0.24347740199187
18 -0.052475330934973
19 0.033056155404889
20 0.000105436469113
21 0.65542815684612
22 -0.23274726415622
23 -0.053211752533619
24 -0.033652544676029
25 0.000091275991871
26 -1.32885472440056
27 0.47044890613454
28 0.003852346281169
29 -0.000938064336936
30 -0.000953522202587
31 0.018502577393464
32 -0.020103221338545
33 -0.005611123327336
34 -0.000084517168369
35 -0.000156830576393
 Sym=     11.1
 Ene=       0.6159
 Spin= Alpha
 Occup=    0.000000
1 0.000094241757993
2 0.000217341895100
3 -0.000732552984830
4 -0.006729862646151
5 0.44618861579943
6 -0.000782586944394
7 0.024772751591330
8 -1.64244722070570
9 0.000820466390600
10 0.001068249751650
11 -0.000941122986934
12 -0.000127126764716
13 0.12579173862966
14 -0.000030421406887
15 0.001792658449769
16 1.14623656444809
17 -0.40626104982519
18 0.033795831325982
19 -0.015195012599836
20 0.000558353004225
21 -1.16262000610965
22 0.41193793247206
23 -0.032296380229828
24 -0.014541209015901
25 -0.000637424260583
26 0.018060770688453
27 -0.006464664140055
28 0.000036579285038
29 -0.072105315087845
30 -0.000024407603299
31 0.002533218532245
32 -0.002752320778916
33 0.000084660923537
34 -0.005611087311499
35 -0.000021498492961
 Sym=     12.1
 Ene=       0.6164
 Spin= Alpha
 Occup=    0.000000
1 -0.066432635215118
2 -0.15305178396567
3 0.51588608105982
4 0.004717900689689
5 0.000719137791596
6 0.54567252535262
7 -0.017130151635920
8 -0.002608713465388
9 -0.55521944529945
10 -0.045984317025045
11 -0.043719073250052
12 0.089703390275097
13 0.000191338960041
14 0.000037085369174
15 0.000005727079710
16 -0.38603480970571
17 0.18283312814409
18 -0.017741113980396
19 -0.029683210612043
20 0.024842421561010
21 -0.38963763694995
22 0.18411665061028
23 -0.017959970362235
24 0.029567924380327
25 0.024840025173118
26 -0.40860113512293
27 0.19086835306035
28 0.034651507201076
29 -0.000044430854354
30 0.024827280676792
31 -1.77636018158274
32 1.93083107573142
33 -0.000058284964255
34 -0.000008873856155
35 0.014692998326704
 Sym=     13.1
 Ene=       0.7194
 Spin= Alpha
 Occup=    0.000000
1 -0.080820248897702
2 -0.059020951078779
3 0.42475807450993
4 -0.000128547817345
5 -0.000021274603853
6 -0.90504834248097
7 0.000148186914099
8 0.000026157922734
9 1.09140912614120
10 -0.10569954106333
11 -0.10570046961979
12 0.21140001068312
13 -0.000000079618879
14 0.000052964471923
15 0.000008551705965
16 -0.90340663148975
17 0.66973391177682
18 -0.045621285928976
19 -0.079368186657984
20 -0.033192745296299
21 -0.90340517336212
22 0.66973284393323
23 -0.045930902653107
24 0.079187917409403
25 -0.033196460401149
26 -0.90341088794220
27 0.66972713693859
28 0.091537346938841
29 0.000178065719151
30 -0.033214694174913
31 0.13822024169267
32 -0.13224481677197
33 0.000000472651133
34 0.000000083780792
35 -0.012918973005061
 Sym=     14.1
 Ene=       0.7860
 Spin= Alpha
 Occup=    0.000000
1 0.012646686022253
2 -0.12782120055254
3 0.11491350737939
4 -0.000127133575968
5 -0.000020276783453
6 -1.05250362728675
7 0.000139755172123
8 0.000021540975222
9 1.32190669131012
10 0.072281719759542
11 0.072288588302623
12 -0.14457030806217
13 0.000000539527071
14 -0.000041433096011
15 -0.000006689130616
16 0.57886622513672
17 -0.53756586798300
18 0.035136291714483
19 0.061144916185432
20 -0.030638873885853
21 0.57885678600945
22 -0.53755975677898
23 0.035374792290974
24 -0.061009528082008
25 -0.030635082692870
26 0.57881497772609
27 -0.53752746349557
28 -0.070532426382711
29 -0.000138959994736
30 -0.030616284842387
31 -1.15241622357087
32 1.37022493165675
33 -0.000001350407355
34 -0.000000220269315
35 -0.050324225113469
 Sym=     15.1
 Ene=       0.8971
 Spin= Alpha
 Occup=    0.000000
1 0.000000923744175
2 0.000005094947956
3 -0.000008181170078
4 1.25580031738388
5 0.059984164026206
6 -0.000175003987903
7 -2.30912194692288
8 -0.11029683687037
9 0.000325217310983
10 0.29044708626222
11 -0.29044914820732
12 0.000002061945096
13 -0.014050922945957
14 -0.006078505185520
15 -0.000278255911274
16 -0.32384692687604
17 1.07776857652794
18 -0.027788150147352
19 -0.16262520815762
20 -0.001840251939196
21 -0.27623514452718
22 0.91931544209446
23 -0.014325805434566
24 0.14437472422391
25 -0.001577607544515
26 0.60007554756301
27 -1.99707341372226
28 -0.28692503623321
29 0.002533691996109
30 0.003465657102611
31 0.000014551614235
32 -0.000019098228928
33 0.002260381686251
34 0.000108540408359
35 -0.000000115665305
 Sym=     16.1
 Ene=       0.8971
 Spin= Alpha
 Occup=    0.000000
1 0.000000163029912
2 0.000000833967217
3 -0.000001284468798
4 -0.059984103971647
5 1.25580012660361
6 -0.000019720893740
7 0.11029675204272
8 -2.30912388681273
9 0.000036664792033
10 -0.012168354863018
11 0.012168071389350
12 0.000000283473668
13 -0.33538127241083
14 0.000297860173146
15 -0.005982807759955
16 -0.50594002213980
17 1.68377977239106
18 -0.15214680676226
19 -0.19157226743480
20 -0.002860899189925
21 0.53342772777240
22 -1.77526148449553
23 0.15485207630711
24 -0.20503439668667
25 0.003026595410596
26 -0.027489094263658
27 0.091483686487637
28 0.013011517896043
29 0.067566711879216
30 -0.000160299128072
31 0.000001740634271
32 -0.000002274003942
33 -0.000107614311974
34 0.002264931794204
35 -0.000000008727512
 Sym=     17.1
 Ene=       1.0707
 Spin= Alpha
 Occup=    0.000000
1 0.80291367726903
2 3.64492776514515
3 -6.10320971253699
4 -0.000005438071634
5 -0.000000761520788
6 -0.032268432024303
7 0.000009444605057
8 0.000000962187057
9 0.030944816194705
10 -0.017881298423656
11 -0.017881351464325
12 0.035762649887981
13 0.000000279837119
14 0.000005979922813
15 0.000000970745762
16 0.16428598615446
17 0.85493734819116
18 -0.091627191695214
19 -0.15942001947083
20 -0.002705102689215
21 0.16428524521293
22 0.85493936166934
23 -0.092249323341092
24 0.15906079910421
25 -0.002711881126360
26 0.16428289152716
27 0.85494799520221
28 0.18387451788445
29 0.000358911439762
30 -0.002745242944388
31 -0.16311618534439
32 0.19489388054907
33 0.000003436049405
34 0.000000555590800
35 -0.025009815864448
 Sym=     18.1
 Ene=       1.2152
 Spin= Alpha
 Occup=    0.000000
1 0.000000517826992
2 0.000002232482500
3 -0.000003562901977
4 0.000021750542739
5 -0.002082490568133
6 -0.000000848775906
7 0.000068218262698
8 -0.006534059224507
9 0.000001371487021
10 -0.000046482491534
11 0.000070194365931
12 -0.000023711874397
13 -0.011231164325145
14 -0.006541090621370
15 0.62645846812263
16 0.005904895976689
17 -0.001350620091281
18 -0.005390466706304
19 0.000416163157509
20 0.35779387091980
21 -0.005961923217189
22 0.001363829957304
23 0.005276529401998
24 0.000329206685568
25 -0.36131801219890
26 0.000058738751395
27 -0.000013373616339
28 0.000004862989299
29 0.009700168669103
30 0.003524200368618
31 -0.000004874601096
32 0.000005879572371
33 0.000010227543830
34 -0.000979909347966
35 -0.000000347127457
 Sym=     19.1
 Ene=       1.2152
 Spin= Alpha
 Occup=    0.000000
1 0.000003472883480
2 0.000014971012766
3 -0.000023882002188
4 -0.002082538252548
5 -0.000021739313438
6 -0.000005686171273
7 -0.006533878552969
8 -0.000068236531536
9 0.000009524307802
10 0.009960756216889
11 -0.009803474390978
12 -0.000157281825911
13 -0.000036396487504
14 0.62645576109114
15 0.006541649492914
16 0.003479848134113
17 -0.000795540404053
18 0.006585795741906
19 -0.005364610020068
20 0.21064073958423
21 0.003379131135843
22 -0.000772525618603
23 0.006655308596690
24 0.005406319168011
25 0.20453615751377
26 -0.006847532530975
27 0.001567005176654
28 -0.002795575828726
29 0.000067357838523
30 -0.41517800609735
31 -0.000032430784617
32 0.000039135556637
33 -0.000979860760686
34 -0.000010236132765
35 -0.000002369396047
 Sym=     20.1
 Ene=       1.5135
 Spin= Alpha
 Occup=    0.000000
1 -0.000004092457419
2 -0.000018138318763
3 0.000031891336778
4 0.000805639869863
5 -0.000063028789870
6 -0.000000838643799
7 0.031739614874679
8 -0.002483852529114
9 -0.000003668856584
10 -0.015145900115377
11 0.015145900771324
12 -0.000000000655947
13 -0.001471751410495
14 0.000750894580241
15 -0.000058756642452
16 -0.008866729878649
17 -0.006922921965567
18 -0.011945030102919
19 0.004138764826716
20 0.000401081234752
21 -0.011728963259676
22 -0.009154739310165
23 -0.011360489305687
24 -0.002973681347681
25 0.000530011849687
26 0.020601289735649
27 0.016054386571606
28 -0.005494569359866
29 0.001088675003973
30 -0.000926358417468
31 -0.000000699134085
32 0.000000863242935
33 0.99657068418856
34 -0.077986496688550
35 -0.000004088343164
 Sym=     21.1
 Ene=       1.5135
 Spin= Alpha
 Occup=    0.000000
1 -0.000000997072639
2 -0.000004419607840
3 0.000007774065138
4 0.000062257591157
5 0.000795379171446
6 -0.000000202893248
7 0.002485083815167
8 0.031757234821109
9 -0.000000892063812
10 -0.001274586003820
11 0.001274592733533
12 -0.000000006729713
13 0.017489486471176
14 0.000058372983607
15 0.000745874519367
16 -0.018656467477758
17 -0.014577366975463
18 0.002635644416949
19 -0.007253415514917
20 0.000840057878693
21 0.017005703238961
22 0.013283251769488
23 -0.004475095663805
24 -0.007837972417664
25 -0.000764953859167
26 0.001652123898304
27 0.001288443027005
28 -0.000413834483095
29 -0.013702963586832
30 -0.000073953707846
31 -0.000000170795890
32 0.000000210753595
33 0.077986506123933
34 0.99657079307883
35 -0.000000976028125
 Sym=     22.1
 Ene=       1.5185
 Spin= Alpha
 Occup=    0.000000
1 0.008396533933850
2 0.045400067777996
3 -0.027025083928724
4 -0.000012237182843
5 -0.000001982736476
6 -0.13006916103210
7 0.000041546650081
8 0.000006720591586
9 0.12766213155024
10 0.030360000317242
11 0.030390974986997
12 -0.060750975304240
13 0.000002777512577
14 -0.000014018301595
15 -0.000002274053480
16 -0.011689762114766
17 -0.005678574051272
18 -0.001798636516927
19 -0.003113703728594
20 0.041570986649008
21 -0.011682202024267
22 -0.005677700339968
23 -0.001812104373854
24 0.003105756959862
25 0.041570426380973
26 -0.011644893797740
27 -0.005673435484637
28 0.003595175559601
29 0.000005431999029
30 0.041567505860703
31 -0.034963247440176
32 0.047496085253173
33 0.000003331834065
34 0.000000521577876
35 0.99447035506120
 Sym=     23.1
 Ene=       1.6139
 Spin= Alpha
 Occup=    0.000000
1 0.000000000192042