 Entering Gaussian System, Link 0=g09
 Input=run.inp
 Output=run.out
 Initial command:
 /soft/gaussian/09-e.01/g09/l1.exe "/blues/gpfs/home/elliott/Packages/PACC/moldriver/rcdriver/rundir/RXN/CH3.H2/MDUSDFXREFXETQ/0_0/2_1/UHFFFAOYSA-N/CH4.H/HXBDELFRWIQQII/0_0/1_2/UHFFFAOYSA-N/2/ezvlpJU/SCANS/R6/01/RUN/OPTI/A00/Gau-29868.inp" -scrdir="/blues/gpfs/home/elliott/Packages/PACC/moldriver/rcdriver/rundir/RXN/CH3.H2/MDUSDFXREFXETQ/0_0/2_1/UHFFFAOYSA-N/CH4.H/HXBDELFRWIQQII/0_0/1_2/UHFFFAOYSA-N/2/ezvlpJU/SCANS/R6/01/RUN/OPTI/A00/"
 Entering Link 1 = /soft/gaussian/09-e.01/g09/l1.exe PID=     29869.
  
 Copyright (c) 1988,1990,1992,1993,1995,1998,2003,2009,2015,
            Gaussian, Inc.  All Rights Reserved.
  
 This is part of the Gaussian(R) 09 program.  It is based on
 the Gaussian(R) 03 system (copyright 2003, Gaussian, Inc.),
 the Gaussian(R) 98 system (copyright 1998, Gaussian, Inc.),
 the Gaussian(R) 94 system (copyright 1995, Gaussian, Inc.),
 the Gaussian 92(TM) system (copyright 1992, Gaussian, Inc.),
 the Gaussian 90(TM) system (copyright 1990, Gaussian, Inc.),
 the Gaussian 88(TM) system (copyright 1988, Gaussian, Inc.),
 the Gaussian 86(TM) system (copyright 1986, Carnegie Mellon
 University), and the Gaussian 82(TM) system (copyright 1983,
 Carnegie Mellon University). Gaussian is a federally registered
 trademark of Gaussian, Inc.
  
 This software contains proprietary and confidential information,
 including trade secrets, belonging to Gaussian, Inc.
  
 This software is provided under written license and may be
 used, copied, transmitted, or stored only in accord with that
 written license.
  
 The following legend is applicable only to US Government
 contracts under FAR:
  
                    RESTRICTED RIGHTS LEGEND
  
 Use, reproduction and disclosure by the US Government is
 subject to restrictions as set forth in subparagraphs (a)
 and (c) of the Commercial Computer Software - Restricted
 Rights clause in FAR 52.227-19.
  
 Gaussian, Inc.
 340 Quinnipiac St., Bldg. 40, Wallingford CT 06492
  
  
 ---------------------------------------------------------------
 Warning -- This program may not be used in any manner that
 competes with the business of Gaussian, Inc. or will provide
 assistance to any competitor of Gaussian, Inc.  The licensee
 of this program is prohibited from giving any competitor of
 Gaussian, Inc. access to this program.  By using this program,
 the user acknowledges that Gaussian, Inc. is engaged in the
 business of creating and licensing software in the field of
 computational chemistry and represents and warrants to the
 licensee that it is not a competitor of Gaussian, Inc. and that
 it will not use this program in any manner prohibited above.
 ---------------------------------------------------------------
  

 Cite this work as:
 Gaussian 09, Revision E.01,
 M. J. Frisch, G. W. Trucks, H. B. Schlegel, G. E. Scuseria, 
 M. A. Robb, J. R. Cheeseman, G. Scalmani, V. Barone, B. Mennucci, 
 G. A. Petersson, H. Nakatsuji, M. Caricato, X. Li, H. P. Hratchian, 
 A. F. Izmaylov, J. Bloino, G. Zheng, J. L. Sonnenberg, M. Hada, 
 M. Ehara, K. Toyota, R. Fukuda, J. Hasegawa, M. Ishida, T. Nakajima, 
 Y. Honda, O. Kitao, H. Nakai, T. Vreven, J. A. Montgomery, Jr., 
 J. E. Peralta, F. Ogliaro, M. Bearpark, J. J. Heyd, E. Brothers, 
 K. N. Kudin, V. N. Staroverov, T. Keith, R. Kobayashi, J. Normand, 
 K. Raghavachari, A. Rendell, J. C. Burant, S. S. Iyengar, J. Tomasi, 
 M. Cossi, N. Rega, J. M. Millam, M. Klene, J. E. Knox, J. B. Cross, 
 V. Bakken, C. Adamo, J. Jaramillo, R. Gomperts, R. E. Stratmann, 
 O. Yazyev, A. J. Austin, R. Cammi, C. Pomelli, J. W. Ochterski, 
 R. L. Martin, K. Morokuma, V. G. Zakrzewski, G. A. Voth, 
 P. Salvador, J. J. Dannenberg, S. Dapprich, A. D. Daniels, 
 O. Farkas, J. B. Foresman, J. V. Ortiz, J. Cioslowski, 
 and D. J. Fox, Gaussian, Inc., Wallingford CT, 2013.
 
 ******************************************
 Gaussian 09:  ES64L-G09RevE.01 30-Nov-2015
                23-Aug-2019 
 ******************************************
 %mem=20GB
 %NProcShared=10
 Will use up to   10 processors via shared memory.
 -----------------------------------------------------
 #P b3lyp/6-31g* # SCF=(xqc) # POpt=() # int=ultrafine
 -----------------------------------------------------
 1/10=7,14=-1,26=4,38=1/1,3;
 2/12=2,17=6,18=5,29=3,40=1/2;
 3/5=1,6=6,7=1,11=2,16=1,25=1,30=1,71=1,74=-5,75=-5/1,2,3;
 4//1;
 5/5=2,8=3,13=1,38=5/2,8;
 6/7=2,8=2,9=2,10=2,28=1/1;
 7/29=1/1,2,3,16;
 1/10=7,14=-1,26=4/3(2);
 2/29=3/2;
 99//99;
 2/29=3/2;
 3/5=1,6=6,7=1,11=2,16=1,25=1,30=1,71=1,74=-5,75=-5/1,2,3;
 4/5=5,16=3,69=1/1;
 5/5=2,8=3,13=1,38=5/2,8;
 7//1,2,3,16;
 1/14=-1,26=4/3(-5);
 2/29=3/2;
 6/7=2,8=2,9=2,10=2,19=2,28=1/1;
 99/9=1/99;
 Leave Link    1 at Fri Aug 23 16:05:28 2019, MaxMem=  2684354560 cpu:         0.5
 (Enter /soft/gaussian/09-e.01/g09/l101.exe)
 --------
 comment:
 --------
 Symbolic Z-matrix:
 Charge =  0 Multiplicity = 2
 C
 H                    1    R1
 H                    1    R2       2    A2
 H                    1    R3       2    A3       3    D3       0
 H                    1    R4       2    A4       3    D4       0
 X                    5    R5       1    A5       2    D5       0
 H                    5    R6       6    A6       1    D6       0
       Variables:
  R1                    1.0922                   
  R2                    1.0922                   
  A2                  109.471                    
  R3                    1.0922                   
  A3                  109.471                    
  D3                  120.                       
  R4                    1.0922                   
  A4                  109.471                    
  D4                  240.                       
  D6                  180.                       
  A6                   85.                       
       Constants:
  R5                    1.                       
  A5                   90.                       
  D5                  180.                       
  R6                    0.88286                  
 
     3 tetrahedral angles replaced.
 NAtoms=      6 NQM=        6 NQMF=       0 NMMI=      0 NMMIF=      0
                NMic=       0 NMicF=      0.
    3 tetrahedral angles replaced.
                    Isotopes and Nuclear Properties:
 (Nuclear quadrupole moments (NQMom) in fm**2, nuclear magnetic moments (NMagM)
  in nuclear magnetons)

  Atom         1           2           3           4           5           6
 IAtWgt=          12           1           1           1           1           1
 AtmWgt=  12.0000000   1.0078250   1.0078250   1.0078250   1.0078250   1.0078250
 NucSpn=           0           1           1           1           1           1
 AtZEff=   0.0000000   0.0000000   0.0000000   0.0000000   0.0000000   0.0000000
 NQMom=    0.0000000   0.0000000   0.0000000   0.0000000   0.0000000   0.0000000
 NMagM=    0.0000000   2.7928460   2.7928460   2.7928460   2.7928460   2.7928460
 AtZNuc=   6.0000000   1.0000000   1.0000000   1.0000000   1.0000000   1.0000000
 Leave Link  101 at Fri Aug 23 16:05:28 2019, MaxMem=  2684354560 cpu:         0.6
 (Enter /soft/gaussian/09-e.01/g09/l103.exe)

 GradGradGradGradGradGradGradGradGradGradGradGradGradGradGradGradGradGrad
 Berny optimization.
 Initialization pass.
                       ----------------------------
                       !    Initial Parameters    !
                       ! (Angstroms and Degrees)  !
 ----------------------                            ----------------------
 !      Name          Value   Derivative information (Atomic Units)     !
 ------------------------------------------------------------------------
 !       R1          1.0922   estimate D2E/DX2                          !
 !       R2          1.0922   estimate D2E/DX2                          !
 !       A2        109.4712   estimate D2E/DX2                          !
 !       R3          1.0922   estimate D2E/DX2                          !
 !       A3        109.4712   estimate D2E/DX2                          !
 !       D3        120.0      estimate D2E/DX2                          !
 !       R4          1.0922   estimate D2E/DX2                          !
 !       A4        109.4712   estimate D2E/DX2                          !
 !       D4        240.0      estimate D2E/DX2                          !
 !       D6        180.0      estimate D2E/DX2                          !
 !       A6         85.0      estimate D2E/DX2                          !
 !       R5          1.0      Frozen                                    !
 !       A5         90.0      Frozen                                    !
 !       D5        180.0      Frozen                                    !
 !       R6          0.8829   Frozen                                    !
 ------------------------------------------------------------------------
 Trust Radius=3.00D-01 FncErr=1.00D-07 GrdErr=1.00D-06
 Number of steps in this run=     25 maximum allowed number of steps=    100.
 GradGradGradGradGradGradGradGradGradGradGradGradGradGradGradGradGradGrad

 Leave Link  103 at Fri Aug 23 16:05:28 2019, MaxMem=  2684354560 cpu:         0.2
 (Enter /soft/gaussian/09-e.01/g09/l202.exe)
 ---------------------------------------------------------------------------------------------------
                            Z-MATRIX (ANGSTROMS AND DEGREES)
   CD    Cent   Atom    N1       Length/X        N2       Alpha/Y        N3        Beta/Z          J
 ---------------------------------------------------------------------------------------------------
      1      1  C 
      2      2  H        1   1.092201(     1)
      3      3  H        1   1.092201(     2)      2  109.471(     7)
      4      4  H        1   1.092201(     3)      2  109.471(     8)      3  120.000(    12)      0
      5      5  H        1   1.092201(     4)      2  109.471(     9)      3  240.000(    13)      0
      6         X        5   1.000000(     5)      1   90.000(    10)      2  180.000(    14)      0
      7      6  H        5   0.882857(     6)      6   85.000(    11)      1  180.000(    15)      0
 ---------------------------------------------------------------------------------------------------
                         Z-Matrix orientation:                         
 ---------------------------------------------------------------------
 Center     Atomic      Atomic             Coordinates (Angstroms)
 Number     Number       Type             X           Y           Z
 ---------------------------------------------------------------------
      1          6           0        0.000000    0.000000    0.000000
      2          1           0        0.000000    0.000000    1.092201
      3          1           0        1.029737    0.000000   -0.364067
      4          1           0       -0.514868   -0.891778   -0.364067
      5          1           0       -0.514868    0.891778   -0.364067
      6         -1           0       -0.348202    0.603103   -1.306876
      7          1           0       -0.916643    1.587673   -0.729778
 ---------------------------------------------------------------------
                    Distance matrix (angstroms):
                    1          2          3          4          5
     1  C    0.000000
     2  H    1.092201   0.000000
     3  H    1.092201   1.783557   0.000000
     4  H    1.092201   1.783557   1.783557   0.000000
     5  H    1.092201   1.783557   1.783557   1.783557   0.000000
     6  X    1.480845   2.498109   1.775201   1.775201   1.000000
     7  H    1.973199   2.584676   2.538276   2.538276   0.882857
                    6          7
     6  X    0.000000
     7  H    1.274968   0.000000
 This structure is nearly, but not quite of a higher symmetry.
 Consider Symm=Loose if the higher symmetry is desired.
 Stoichiometry    CH5(2)
 Framework group  C1[X(CH5)]
 Deg. of freedom    12
 Full point group                 C1      NOp   1
 Largest Abelian subgroup         C1      NOp   1
 Largest concise Abelian subgroup C1      NOp   1
                         Standard orientation:                         
 ---------------------------------------------------------------------
 Center     Atomic      Atomic             Coordinates (Angstroms)
 Number     Number       Type             X           Y           Z
 ---------------------------------------------------------------------
      1          6           0       -0.095957    0.025040   -0.149476
      2          1           0       -0.026104   -0.832178   -0.822679
      3          1           0        0.281534    0.916621   -0.654933
      4          1           0       -1.139111    0.181364    0.133890
      5          1           0        0.499853   -0.165648    0.745818
      6          1           0        0.959570   -0.250396    1.494761
 ---------------------------------------------------------------------
 Rotational constants (GHZ):    157.6370072     73.2661139     73.2661139
 Leave Link  202 at Fri Aug 23 16:05:28 2019, MaxMem=  2684354560 cpu:         0.1
 (Enter /soft/gaussian/09-e.01/g09/l301.exe)
 Standard basis: 6-31G(d) (6D, 7F)
 Ernie: Thresh=  0.10000D-02 Tol=  0.10000D-05 Strict=F.
 There are    25 symmetry adapted cartesian basis functions of A   symmetry.
 There are    25 symmetry adapted basis functions of A   symmetry.
    25 basis functions,    48 primitive gaussians,    25 cartesian basis functions
     6 alpha electrons        5 beta electrons
       nuclear repulsion energy        16.2384944296 Hartrees.
 IExCor=  402 DFT=T Ex+Corr=B3LYP ExCW=0 ScaHFX=  0.200000
 ScaDFX=  0.800000  0.720000  1.000000  0.810000 ScalE2=  1.000000  1.000000
 IRadAn=      5 IRanWt=     -1 IRanGd=            0 ICorTp=0 IEmpDi=  4
 NAtoms=    6 NActive=    6 NUniq=    6 SFac= 1.00D+00 NAtFMM=   60 NAOKFM=F Big=F
 Integral buffers will be    131072 words long.
 Raffenetti 2 integral format.
 Two-electron integral symmetry is turned on.
 Leave Link  301 at Fri Aug 23 16:05:28 2019, MaxMem=  2684354560 cpu:         0.6
 (Enter /soft/gaussian/09-e.01/g09/l302.exe)
 NPDir=0 NMtPBC=     1 NCelOv=     1 NCel=       1 NClECP=     1 NCelD=      1
         NCelK=      1 NCelE2=     1 NClLst=     1 CellRange=     0.0.
 One-electron integrals computed using PRISM.
 NBasis=    25 RedAO= T EigKep=  8.22D-03  NBF=    25
 NBsUse=    25 1.00D-06 EigRej= -1.00D+00 NBFU=    25
 Precomputing XC quadrature grid using
 IXCGrd= 4 IRadAn=           5 IRanWt=          -1 IRanGd=           0 AccXCQ= 0.00D+00.
 Generated NRdTot=       0 NPtTot=           0 NUsed=           0 NTot=          32
 NSgBfM=    25    25    25    25    25 MxSgAt=     6 MxSgA2=     6.
 Leave Link  302 at Fri Aug 23 16:05:28 2019, MaxMem=  2684354560 cpu:         1.6
 (Enter /soft/gaussian/09-e.01/g09/l303.exe)
 DipDrv:  MaxL=1.
 Leave Link  303 at Fri Aug 23 16:05:28 2019, MaxMem=  2684354560 cpu:         0.2
 (Enter /soft/gaussian/09-e.01/g09/l401.exe)
 ExpMin= 1.61D-01 ExpMax= 3.05D+03 ExpMxC= 4.57D+02 IAcc=3 IRadAn=         5 AccDes= 0.00D+00
 Harris functional with IExCor=  402 and IRadAn=       5 diagonalized for initial guess.
 HarFok:  IExCor=  402 AccDes= 0.00D+00 IRadAn=         5 IDoV= 1 UseB2=F ITyADJ=14
 ICtDFT=  3500011 ScaDFX=  1.000000  1.000000  1.000000  1.000000
 FoFCou: FMM=F IPFlag=           0 FMFlag=      100000 FMFlg1=           0
         NFxFlg=           0 DoJE=T BraDBF=F KetDBF=T FulRan=T
         wScrn=  0.000000 ICntrl=     500 IOpCl=  0 I1Cent=   200000004 NGrid=           0
         NMat0=    1 NMatS0=      1 NMatT0=    0 NMatD0=    1 NMtDS0=    0 NMtDT0=    0
 Petite list used in FoFCou.
 Harris En= -40.9994269555139    
 JPrj=0 DoOrth=F DoCkMO=F.
 Initial guess <Sx>= 0.0000 <Sy>= 0.0000 <Sz>= 0.5000 <S**2>= 0.7500 S= 0.5000
 Leave Link  401 at Fri Aug 23 16:05:29 2019, MaxMem=  2684354560 cpu:         2.0
 (Enter /soft/gaussian/09-e.01/g09/l502.exe)
 UHF open shell SCF:
 Using DIIS extrapolation, IDIIS=  1040.
 Integral symmetry usage will be decided dynamically.
 Keep R1 and R2 ints in memory in canonical form, NReq=976418.
 IVT=        8268 IEndB=        8268 NGot=  2684354560 MDV=  2684240343
 LenX=  2684240343 LenY=  2684239277
 Requested convergence on RMS density matrix=1.00D-08 within  64 cycles.
 Requested convergence on MAX density matrix=1.00D-06.
 Requested convergence on             energy=1.00D-06.
 No special actions if energy rises.
 FoFCou: FMM=F IPFlag=           0 FMFlag=           0 FMFlg1=           0
         NFxFlg=           0 DoJE=F BraDBF=F KetDBF=F FulRan=T
         wScrn=  0.000000 ICntrl=     600 IOpCl=  0 I1Cent=           0 NGrid=           0
         NMat0=    1 NMatS0=    325 NMatT0=    0 NMatD0=    1 NMtDS0=    0 NMtDT0=    0
 Symmetry not used in FoFCou.
 Integral accuracy reduced to 1.0D-05 until final iterations.

 Cycle   1  Pass 0  IDiag  1:
 E= -40.9006525440787    
 DIIS: error= 6.99D-02 at cycle   1 NSaved=   1.
 NSaved= 1 IEnMin= 1 EnMin= -40.9006525440787     IErMin= 1 ErrMin= 6.99D-02
 ErrMax= 6.99D-02  0.00D+00 EMaxC= 1.00D-01 BMatC= 3.18D-01 BMatP= 3.18D-01
 IDIUse=3 WtCom= 3.01D-01 WtEn= 6.99D-01
 Coeff-Com:  0.100D+01
 Coeff-En:   0.100D+01
 Coeff:      0.100D+01
 Gap=     0.330 Goal=   None    Shift=    0.000
 Gap=     0.281 Goal=   None    Shift=    0.000
 GapD=    0.281 DampG=1.000 DampE=0.500 DampFc=0.5000 IDamp=-1.
 Damping current iteration by 5.00D-01
 RMSDP=3.12D-02 MaxDP=3.95D-01              OVMax= 2.04D-01

 Cycle   2  Pass 0  IDiag  1:
 E= -40.9393069153339     Delta-E=       -0.038654371255 Rises=F Damp=T
 DIIS: error= 1.25D-02 at cycle   2 NSaved=   2.
 NSaved= 2 IEnMin= 2 EnMin= -40.9393069153339     IErMin= 2 ErrMin= 1.25D-02
 ErrMax= 1.25D-02  0.00D+00 EMaxC= 1.00D-01 BMatC= 1.03D-02 BMatP= 3.18D-01
 IDIUse=3 WtCom= 8.75D-01 WtEn= 1.25D-01
 Coeff-Com:  0.848D-01 0.915D+00
 Coeff-En:   0.138D+00 0.862D+00
 Coeff:      0.915D-01 0.908D+00
 Gap=     0.330 Goal=   None    Shift=    0.000
 Gap=     0.340 Goal=   None    Shift=    0.000
 RMSDP=3.83D-03 MaxDP=7.42D-02 DE=-3.87D-02 OVMax= 1.29D-01

 Cycle   3  Pass 0  IDiag  1:
 E= -40.9873537892854     Delta-E=       -0.048046873951 Rises=F Damp=F
 DIIS: error= 1.70D-03 at cycle   3 NSaved=   3.
 NSaved= 3 IEnMin= 3 EnMin= -40.9873537892854     IErMin= 3 ErrMin= 1.70D-03
 ErrMax= 1.70D-03  0.00D+00 EMaxC= 1.00D-01 BMatC= 1.92D-04 BMatP= 1.03D-02
 IDIUse=3 WtCom= 9.83D-01 WtEn= 1.70D-02
 Coeff-Com: -0.723D-03-0.254D-01 0.103D+01
 Coeff-En:   0.000D+00 0.000D+00 0.100D+01
 Coeff:     -0.711D-03-0.250D-01 0.103D+01
 Gap=     0.330 Goal=   None    Shift=    0.000
 Gap=     0.345 Goal=   None    Shift=    0.000
 RMSDP=1.05D-03 MaxDP=1.17D-02 DE=-4.80D-02 OVMax= 5.58D-03

 Cycle   4  Pass 0  IDiag  1:
 E= -40.9874421881889     Delta-E=       -0.000088398904 Rises=F Damp=F
 DIIS: error= 4.24D-04 at cycle   4 NSaved=   4.
 NSaved= 4 IEnMin= 4 EnMin= -40.9874421881889     IErMin= 4 ErrMin= 4.24D-04
 ErrMax= 4.24D-04  0.00D+00 EMaxC= 1.00D-01 BMatC= 1.16D-05 BMatP= 1.92D-04
 IDIUse=3 WtCom= 9.96D-01 WtEn= 4.24D-03
 Coeff-Com: -0.228D-02-0.148D-01-0.235D-01 0.104D+01
 Coeff-En:   0.000D+00 0.000D+00 0.000D+00 0.100D+01
 Coeff:     -0.227D-02-0.147D-01-0.234D-01 0.104D+01
 Gap=     0.329 Goal=   None    Shift=    0.000
 Gap=     0.347 Goal=   None    Shift=    0.000
 RMSDP=1.39D-04 MaxDP=1.17D-03 DE=-8.84D-05 OVMax= 2.28D-03

 Cycle   5  Pass 0  IDiag  1:
 E= -40.9874483652979     Delta-E=       -0.000006177109 Rises=F Damp=F
 DIIS: error= 9.56D-05 at cycle   5 NSaved=   5.
 NSaved= 5 IEnMin= 5 EnMin= -40.9874483652979     IErMin= 5 ErrMin= 9.56D-05
 ErrMax= 9.56D-05  0.00D+00 EMaxC= 1.00D-01 BMatC= 1.04D-06 BMatP= 1.16D-05
 IDIUse=1 WtCom= 1.00D+00 WtEn= 0.00D+00
 Coeff-Com: -0.809D-03 0.179D-02-0.557D-01 0.534D-01 0.100D+01
 Coeff:     -0.809D-03 0.179D-02-0.557D-01 0.534D-01 0.100D+01
 Gap=     0.330 Goal=   None    Shift=    0.000
 Gap=     0.347 Goal=   None    Shift=    0.000
 RMSDP=6.27D-05 MaxDP=6.74D-04 DE=-6.18D-06 OVMax= 3.81D-04

 Cycle   6  Pass 0  IDiag  1:
 E= -40.9874488513031     Delta-E=       -0.000000486005 Rises=F Damp=F
 DIIS: error= 2.18D-05 at cycle   6 NSaved=   6.
 NSaved= 6 IEnMin= 6 EnMin= -40.9874488513031     IErMin= 6 ErrMin= 2.18D-05
 ErrMax= 2.18D-05  0.00D+00 EMaxC= 1.00D-01 BMatC= 4.86D-08 BMatP= 1.04D-06
 IDIUse=1 WtCom= 1.00D+00 WtEn= 0.00D+00
 Coeff-Com: -0.406D-04 0.681D-03-0.704D-02-0.230D-01 0.123D+00 0.906D+00
 Coeff:     -0.406D-04 0.681D-03-0.704D-02-0.230D-01 0.123D+00 0.906D+00
 Gap=     0.329 Goal=   None    Shift=    0.000
 Gap=     0.347 Goal=   None    Shift=    0.000
 RMSDP=8.60D-06 MaxDP=4.55D-05 DE=-4.86D-07 OVMax= 7.83D-05

 Initial convergence to 1.0D-05 achieved.  Increase integral accuracy.
 Cycle   7  Pass 1  IDiag  1:
 E= -40.9874477675779     Delta-E=        0.000001083725 Rises=F Damp=F
 DIIS: error= 7.18D-06 at cycle   1 NSaved=   1.
 NSaved= 1 IEnMin= 1 EnMin= -40.9874477675779     IErMin= 1 ErrMin= 7.18D-06
 ErrMax= 7.18D-06  0.00D+00 EMaxC= 1.00D-01 BMatC= 5.36D-09 BMatP= 5.36D-09
 IDIUse=1 WtCom= 1.00D+00 WtEn= 0.00D+00
 Coeff-Com:  0.100D+01
 Coeff:      0.100D+01
 Gap=     0.329 Goal=   None    Shift=    0.000
 Gap=     0.347 Goal=   None    Shift=    0.000
 RMSDP=8.60D-06 MaxDP=4.55D-05 DE= 1.08D-06 OVMax= 2.99D-05

 Cycle   8  Pass 1  IDiag  1:
 E= -40.9874477708607     Delta-E=       -0.000000003283 Rises=F Damp=F
 DIIS: error= 3.89D-06 at cycle   2 NSaved=   2.
 NSaved= 2 IEnMin= 2 EnMin= -40.9874477708607     IErMin= 2 ErrMin= 3.89D-06
 ErrMax= 3.89D-06  0.00D+00 EMaxC= 1.00D-01 BMatC= 1.02D-09 BMatP= 5.36D-09
 IDIUse=1 WtCom= 1.00D+00 WtEn= 0.00D+00
 Coeff-Com:  0.151D-01 0.985D+00
 Coeff:      0.151D-01 0.985D+00
 Gap=     0.329 Goal=   None    Shift=    0.000
 Gap=     0.347 Goal=   None    Shift=    0.000
 RMSDP=1.23D-06 MaxDP=9.46D-06 DE=-3.28D-09 OVMax= 1.43D-05

 Cycle   9  Pass 1  IDiag  1:
 E= -40.9874477714114     Delta-E=       -0.000000000551 Rises=F Damp=F
 DIIS: error= 2.69D-06 at cycle   3 NSaved=   3.
 NSaved= 3 IEnMin= 3 EnMin= -40.9874477714114     IErMin= 3 ErrMin= 2.69D-06
 ErrMax= 2.69D-06  0.00D+00 EMaxC= 1.00D-01 BMatC= 3.46D-10 BMatP= 1.02D-09
 IDIUse=1 WtCom= 1.00D+00 WtEn= 0.00D+00
 Coeff-Com: -0.206D+00 0.275D+00 0.930D+00
 Coeff:     -0.206D+00 0.275D+00 0.930D+00
 Gap=     0.329 Goal=   None    Shift=    0.000
 Gap=     0.347 Goal=   None    Shift=    0.000
 RMSDP=9.41D-07 MaxDP=9.40D-06 DE=-5.51D-10 OVMax= 9.08D-06

 Cycle  10  Pass 1  IDiag  1:
 E= -40.9874477715572     Delta-E=       -0.000000000146 Rises=F Damp=F
 DIIS: error= 1.31D-06 at cycle   4 NSaved=   4.
 NSaved= 4 IEnMin= 4 EnMin= -40.9874477715572     IErMin= 4 ErrMin= 1.31D-06
 ErrMax= 1.31D-06  0.00D+00 EMaxC= 1.00D-01 BMatC= 9.24D-11 BMatP= 3.46D-10
 IDIUse=1 WtCom= 1.00D+00 WtEn= 0.00D+00
 Coeff-Com: -0.110D+00 0.200D-01 0.486D+00 0.604D+00
 Coeff:     -0.110D+00 0.200D-01 0.486D+00 0.604D+00
 Gap=     0.329 Goal=   None    Shift=    0.000
 Gap=     0.347 Goal=   None    Shift=    0.000
 RMSDP=2.08D-07 MaxDP=1.90D-06 DE=-1.46D-10 OVMax= 2.74D-06

 Cycle  11  Pass 1  IDiag  1:
 E= -40.9874477715835     Delta-E=       -0.000000000026 Rises=F Damp=F
 DIIS: error= 6.12D-08 at cycle   5 NSaved=   5.
 NSaved= 5 IEnMin= 5 EnMin= -40.9874477715835     IErMin= 5 ErrMin= 6.12D-08
 ErrMax= 6.12D-08  0.00D+00 EMaxC= 1.00D-01 BMatC= 2.40D-13 BMatP= 9.24D-11
 IDIUse=1 WtCom= 1.00D+00 WtEn= 0.00D+00
 Coeff-Com:  0.852D-02-0.854D-02-0.366D-01-0.939D-02 0.105D+01
 Coeff:      0.852D-02-0.854D-02-0.366D-01-0.939D-02 0.105D+01
 Gap=     0.329 Goal=   None    Shift=    0.000
 Gap=     0.347 Goal=   None    Shift=    0.000
 RMSDP=2.27D-08 MaxDP=2.07D-07 DE=-2.62D-11 OVMax= 1.96D-07

 Cycle  12  Pass 1  IDiag  1:
 E= -40.9874477715836     Delta-E=       -0.000000000000 Rises=F Damp=F
 DIIS: error= 1.30D-08 at cycle   6 NSaved=   6.
 NSaved= 6 IEnMin= 6 EnMin= -40.9874477715836     IErMin= 6 ErrMin= 1.30D-08
 ErrMax= 1.30D-08  0.00D+00 EMaxC= 1.00D-01 BMatC= 1.07D-14 BMatP= 2.40D-13
 IDIUse=1 WtCom= 1.00D+00 WtEn= 0.00D+00
 Coeff-Com:  0.587D-02-0.116D-02-0.256D-01-0.320D-01 0.914D-01 0.962D+00
 Coeff:      0.587D-02-0.116D-02-0.256D-01-0.320D-01 0.914D-01 0.962D+00
 Gap=     0.329 Goal=   None    Shift=    0.000
 Gap=     0.347 Goal=   None    Shift=    0.000
 RMSDP=6.43D-09 MaxDP=6.44D-08 DE=-8.53D-14 OVMax= 5.56D-08

 SCF Done:  E(UB3LYP) =  -40.9874477716     A.U. after   12 cycles
            NFock= 12  Conv=0.64D-08     -V/T= 2.0044
 <Sx>= 0.0000 <Sy>= 0.0000 <Sz>= 0.5000 <S**2>= 0.7534 S= 0.5017
 <L.S>= 0.000000000000E+00
 KE= 4.080915437744D+01 PE=-1.264758388662D+02 EE= 2.844074228756D+01
 Annihilation of the first spin contaminant:
 S**2 before annihilation     0.7534,   after     0.7500
 Leave Link  502 at Fri Aug 23 16:05:29 2019, MaxMem=  2684354560 cpu:         6.5
 (Enter /soft/gaussian/09-e.01/g09/l508.exe)
 QCSCF skips out because SCF is already converged.
 Leave Link  508 at Fri Aug 23 16:05:29 2019, MaxMem=  2684354560 cpu:         0.0
 (Enter /soft/gaussian/09-e.01/g09/l601.exe)
 Copying SCF densities to generalized density rwf, IOpCl= 1 IROHF=0.

 **********************************************************************

            Population analysis using the SCF density.

 **********************************************************************

 Orbital symmetries:
 Alpha Orbitals:
       Occupied  (A) (A) (A) (A) (A) (A)
       Virtual   (A) (A) (A) (A) (A) (A) (A) (A) (A) (A) (A) (A)
                 (A) (A) (A) (A) (A) (A) (A)
 Beta  Orbitals:
       Occupied  (A) (A) (A) (A) (A)
       Virtual   (A) (A) (A) (A) (A) (A) (A) (A) (A) (A) (A) (A)
                 (A) (A) (A) (A) (A) (A) (A) (A)
 The electronic state is 2-A.
 Alpha  occ. eigenvalues --  -10.18002  -0.72689  -0.49528  -0.40511  -0.40507
 Alpha  occ. eigenvalues --   -0.20697
 Alpha virt. eigenvalues --    0.12252   0.16334   0.16357   0.27022   0.51866
 Alpha virt. eigenvalues --    0.51915   0.54575   0.71590   0.88288   0.88309
 Alpha virt. eigenvalues --    0.94488   1.03226   1.26433   1.62877   1.62970
 Alpha virt. eigenvalues --    2.22320   2.22332   2.27309   4.20291
  Beta  occ. eigenvalues --  -10.17182  -0.70550  -0.45350  -0.39986  -0.39979
  Beta virt. eigenvalues --   -0.05306   0.12696   0.16858   0.16872   0.29627
  Beta virt. eigenvalues --    0.52093   0.52102   0.57437   0.77443   0.88994
  Beta virt. eigenvalues --    0.88998   0.95190   1.07552   1.27901   1.65074
  Beta virt. eigenvalues --    1.65156   2.23679   2.23706   2.30300   4.21884
          Condensed to atoms (all electrons):
               1          2          3          4          5          6
     1  C    5.384937   0.367630   0.372571   0.372571   0.284074  -0.246173
     2  H    0.367630   0.526724  -0.023626  -0.023626  -0.023469   0.007659
     3  H    0.372571  -0.023626   0.526075  -0.023779  -0.027936   0.007582
     4  H    0.372571  -0.023626  -0.023779   0.526075  -0.027936   0.007582
     5  H    0.284074  -0.023469  -0.027936  -0.027936   0.629757   0.110223
     6  H   -0.246173   0.007659   0.007582   0.007582   0.110223   1.139745
          Atomic-Atomic Spin Densities.
               1          2          3          4          5          6
     1  C    0.687378  -0.026769  -0.024616  -0.024616   0.056270  -0.270381
     2  H   -0.026769  -0.000308   0.004429   0.004429   0.001958   0.010481
     3  H   -0.024616   0.004429  -0.004520   0.004050   0.002524   0.010074
     4  H   -0.024616   0.004429   0.004050  -0.004519   0.002524   0.010074
     5  H    0.056270   0.001958   0.002524   0.002524  -0.135174  -0.047279
     6  H   -0.270381   0.010481   0.010074   0.010074  -0.047279   1.030839
 Mulliken charges and spin densities:
               1          2
     1  C   -0.535609   0.397267
     2  H    0.168709  -0.005781
     3  H    0.169114  -0.008059
     4  H    0.169115  -0.008059
     5  H    0.055288  -0.119177
     6  H   -0.026617   0.743809
 Sum of Mulliken charges =  -0.00000   1.00000
 Mulliken charges and spin densities with hydrogens summed into heavy atoms:
               1          2
     1  C   -0.000000   1.000000
 Electronic spatial extent (au):  <R**2>=             51.8851
 Charge=             -0.0000 electrons
 Dipole moment (field-independent basis, Debye):
    X=             -0.4136    Y=              0.1117    Z=             -0.6408  Tot=              0.7708
 Quadrupole moment (field-independent basis, Debye-Ang):
   XX=             -9.8595   YY=             -9.3045   ZZ=            -10.7029
   XY=              0.1594   XZ=             -0.9282   YZ=              0.2471
 Traceless Quadrupole moment (field-independent basis, Debye-Ang):
   XX=              0.0961   YY=              0.6512   ZZ=             -0.7473
   XY=              0.1594   XZ=             -0.9282   YZ=              0.2471
 Octapole moment (field-independent basis, Debye-Ang**2):
  XXX=             -2.5985  YYY=              0.3893  ZZZ=             -4.4057  XYY=             -0.2171
  XXY=              0.4650  XXZ=             -1.3668  XZZ=             -1.7669  YZZ=              0.3556
  YYZ=             -1.3527  XYZ=              0.1006
 Hexadecapole moment (field-independent basis, Debye-Ang**3):
 XXXX=            -24.4123 YYYY=            -16.5901 ZZZZ=            -40.3573 XXXY=              0.9936
 XXXZ=             -7.6313 YYYX=              1.3157 YYYZ=              1.6633 ZZZX=             -8.9012
 ZZZY=              2.4992 XXYY=             -7.1372 XXZZ=            -11.9304 YYZZ=             -8.4482
 XXYZ=              0.7981 YYXZ=             -2.3545 ZZXY=              0.8751
 N-N= 1.623849442960D+01 E-N=-1.264758387642D+02  KE= 4.080915437744D+01
                          Isotropic Fermi Contact Couplings
        Atom                 a.u.       MegaHertz       Gauss      10(-4) cm-1
     1  C(13)              0.24521     275.66017      98.36240      91.95034
     2  H(1)              -0.00290     -12.94389      -4.61870      -4.31762
     3  H(1)              -0.00384     -17.15187      -6.12021      -5.72125
     4  H(1)              -0.00384     -17.15182      -6.12020      -5.72123
     5  H(1)              -0.02379    -106.33598     -37.94332     -35.46987
     6  H(1)               0.24067    1075.78521     383.86690     358.84332
 --------------------------------------------------------
       Center         ----  Spin Dipole Couplings  ----
                      3XX-RR        3YY-RR        3ZZ-RR
 --------------------------------------------------------
     1   Atom       -0.027396     -0.221625      0.249021
     2   Atom       -0.021833      0.007330      0.014503
     3   Atom       -0.016322      0.011248      0.005073
     4   Atom        0.036641     -0.028501     -0.008140
     5   Atom       -0.020859     -0.134536      0.155394
     6   Atom        0.001831      0.009165     -0.010996
 --------------------------------------------------------
                        XY            XZ            YZ
 --------------------------------------------------------
     1   Atom       -0.065429      0.323728     -0.099765
     2   Atom       -0.004790      0.011206      0.026667
     3   Atom        0.012950      0.003472     -0.029385
     4   Atom       -0.011746      0.000667     -0.001905
     5   Atom       -0.031006      0.190478     -0.048258
     6   Atom        0.001288     -0.012412      0.002110
 --------------------------------------------------------


 ---------------------------------------------------------------------------------
              Anisotropic Spin Dipole Couplings in Principal Axis System
 ---------------------------------------------------------------------------------

       Atom             a.u.   MegaHertz   Gauss  10(-4) cm-1        Axes

              Baa    -0.2420   -32.474   -11.587   -10.832 -0.2654  0.8956  0.3569
     1 C(13)  Bbb    -0.2410   -32.341   -11.540   -10.788  0.7965  0.4122 -0.4423
              Bcc     0.4830    64.815    23.128    21.620  0.5433 -0.1669  0.8228
 
              Baa    -0.0305   -16.292    -5.813    -5.434  0.7965  0.4122 -0.4423
     2 H(1)   Bbb    -0.0078    -4.146    -1.479    -1.383 -0.5977  0.6468 -0.4736
              Bcc     0.0383    20.438     7.293     6.817  0.0908  0.6416  0.7616
 
              Baa    -0.0307   -16.376    -5.843    -5.462  0.6360 -0.5648 -0.5258
     3 H(1)   Bbb    -0.0080    -4.281    -1.527    -1.428  0.7595  0.3376  0.5561
              Bcc     0.0387    20.656     7.371     6.890  0.1366  0.7530 -0.6437
 
              Baa    -0.0307   -16.376    -5.843    -5.462  0.1706  0.9823  0.0779
     4 H(1)   Bbb    -0.0080    -4.281    -1.527    -1.428 -0.0341 -0.0731  0.9967
              Bcc     0.0387    20.656     7.371     6.890  0.9848 -0.1727  0.0210
 
              Baa    -0.1427   -76.122   -27.162   -25.392  0.7965  0.4122 -0.4423
     5 H(1)   Bbb    -0.1423   -75.934   -27.095   -25.329 -0.2842  0.9009  0.3279
              Bcc     0.2850   152.056    54.257    50.720  0.5336 -0.1355  0.8348
 
              Baa    -0.0188   -10.016    -3.574    -3.341  0.5180 -0.0882  0.8508
     6 H(1)   Bbb     0.0094     5.006     1.786     1.670 -0.3118  0.9068  0.2838
              Bcc     0.0094     5.010     1.788     1.671  0.7965  0.4123 -0.4423
 

 ---------------------------------------------------------------------------------

 No NMR shielding tensors so no spin-rotation constants.
 Leave Link  601 at Fri Aug 23 16:05:30 2019, MaxMem=  2684354560 cpu:         3.0
 (Enter /soft/gaussian/09-e.01/g09/l701.exe)
 Compute integral first derivatives.
 ... and contract with generalized density number  0.
 Leave Link  701 at Fri Aug 23 16:05:30 2019, MaxMem=  2684354560 cpu:         1.6
 (Enter /soft/gaussian/09-e.01/g09/l702.exe)
 L702 exits ... SP integral derivatives will be done elsewhere.
 Leave Link  702 at Fri Aug 23 16:05:30 2019, MaxMem=  2684354560 cpu:         0.1
 (Enter /soft/gaussian/09-e.01/g09/l703.exe)
 Compute integral first derivatives, UseDBF=F ICtDFT=           0.
 Integral derivatives from FoFJK, PRISM(SPDF).
 Calling FoFJK, ICntrl=      2127 FMM=F ISym2X=0 I1Cent= 0 IOpClX= 1 NMat=1 NMatS=1 NMatT=0.
 FoFJK:  IHMeth= 1 ICntrl=    2127 DoSepK=F KAlg= 0 I1Cent=   0 FoldK=F
 IRaf=         0 NMat=   1 IRICut=       1 DoRegI=T DoRafI=F ISym2E= 0.
 FoFCou: FMM=F IPFlag=           0 FMFlag=      100000 FMFlg1=         800
         NFxFlg=           0 DoJE=F BraDBF=F KetDBF=F FulRan=T
         wScrn=  0.000000 ICntrl=    2127 IOpCl=  1 I1Cent=           0 NGrid=           0
         NMat0=    1 NMatS0=      1 NMatT0=    0 NMatD0=    1 NMtDS0=    0 NMtDT0=    0
 Symmetry not used in FoFCou.
 Leave Link  703 at Fri Aug 23 16:05:30 2019, MaxMem=  2684354560 cpu:         2.3
 (Enter /soft/gaussian/09-e.01/g09/l716.exe)
 Dipole        =-1.62721800D-01 4.39470845D-02-2.52093352D-01
 ***** Axes restored to original set *****
 -------------------------------------------------------------------
 Center     Atomic                   Forces (Hartrees/Bohr)
 Number     Number              X              Y              Z
 -------------------------------------------------------------------
      1        6           0.038022000   -0.065855358    0.028530789
      2        1          -0.001783440    0.003089345    0.001018527
      3        1           0.000040305    0.003275927   -0.002081995
      4        1          -0.002856991    0.001602620   -0.002082055
      5        1          -0.003804174    0.006588089   -0.000300276
      6        1          -0.029617699    0.051299378   -0.025084991
 -------------------------------------------------------------------
 Cartesian Forces:  Max     0.065855358 RMS     0.024536320
 -----------------------------------------------------------------------------------------------
                       Internal Coordinate Forces (Hartree/Bohr or radian)
  Cent   Atom   N1       Length/X         N2         Alpha/Y        N3         Beta/Z          J
 -----------------------------------------------------------------------------------------------
      1  C 
      2  H        1   0.001019(     1)
      3  H        1   0.000732(     2)      2   0.004024(     7)
      4  H        1   0.000732(     3)      2   0.004024(     8)      3   0.006374(    12)     0
      5  H        1   0.071482(     4)      2   0.000565(     9)      3  -0.000001(    13)     0
         X        5  -0.000000(     5)      1   0.002846(    10)      2  -0.000000(    14)     0
      6  H        5   0.064305(     6)      6   0.002846(    11)      1  -0.000000(    15)     0
 -----------------------------------------------------------------------------------------------
 Internal  Forces:  Max     0.071481896 RMS     0.024948582
 Force constants in Cartesian coordinates: 
                1             2             3             4             5 
      1  0.825227D+00
      2  0.904475D-01  0.720787D+00
      3 -0.615639D-02  0.106632D-01  0.699040D+00
      4 -0.719808D-01  0.248364D-02  0.000000D+00  0.572310D-01
      5  0.248364D-02 -0.748487D-01  0.000000D+00  0.263014D-03  0.569273D-01
      6  0.000000D+00  0.000000D+00 -0.345595D+00  0.000000D+00  0.000000D+00
      7 -0.317375D+00 -0.106167D-02  0.844459D-01  0.125683D-01  0.000000D+00
      8 -0.295122D-02 -0.781215D-01 -0.330629D-03  0.000000D+00  0.436532D-03
      9  0.798174D-01 -0.300286D-02 -0.106746D+00  0.355484D-01  0.000000D+00
     10 -0.139673D+00 -0.105548D+00 -0.419366D-01  0.346946D-02  0.525319D-02
     11 -0.103658D+00 -0.255824D+00 -0.732976D-01  0.525319D-02  0.953533D-02
     12 -0.373082D-01 -0.706254D-01 -0.106746D+00 -0.177742D-01 -0.307858D-01
     13 -0.494895D+00 -0.973352D-01 -0.272795D-01 -0.738436D-02 -0.115196D-01
     14 -0.973352D-01 -0.382502D+00  0.472494D-01 -0.115196D-01  0.591739D-02
     15 -0.293043D-01  0.507566D-01 -0.179825D+00 -0.177742D-01  0.307858D-01
     16  0.198697D+00  0.111014D+00 -0.907342D-02  0.609647D-02  0.351980D-02
     17  0.111014D+00  0.705097D-01  0.157156D-01  0.351980D-02  0.203216D-02
     18 -0.704856D-02  0.122085D-01  0.398727D-01  0.000000D+00  0.000000D+00
                6             7             8             9            10 
      6  0.345595D+00
      7  0.000000D+00  0.313555D+00
      8  0.000000D+00  0.876712D-04  0.569273D-01
      9  0.000000D+00 -0.906241D-01  0.247972D-03  0.892715D-01
     10  0.000000D+00 -0.520040D-02 -0.272741D-01 -0.147089D-01  0.121160D+00
     11  0.000000D+00  0.175106D-02  0.953533D-02  0.495276D-02  0.111167D+00
     12  0.000000D+00  0.306526D-02  0.152147D-01  0.866986D-02  0.450973D-01
     13  0.000000D+00 -0.151497D-02  0.336574D-01 -0.428497D-02  0.243078D-01
     14  0.000000D+00  0.396203D-03  0.132545D-01  0.112063D-02  0.187487D-01
     15  0.000000D+00  0.311298D-02 -0.151320D-01  0.880484D-02  0.115482D-01
     16  0.000000D+00 -0.203216D-02 -0.351980D-02 -0.574781D-02 -0.406432D-02
     17  0.000000D+00 -0.117327D-02 -0.203216D-02 -0.331850D-02 -0.234653D-02
     18  0.000000D+00  0.000000D+00  0.000000D+00  0.000000D+00  0.000000D+00
               11            12            13            14            15 
     11  0.249322D+00
     12  0.786068D-01  0.892715D-01
     13 -0.145126D-01  0.117199D-02  0.976758D+00
     14 -0.125683D-01  0.427121D-02  0.248827D+00  0.689437D+00
     15 -0.102619D-01  0.880484D-02  0.592468D-01 -0.102619D+00  0.292251D+00
     16  0.000000D+00  0.574781D-02 -0.497271D+00 -0.159117D+00 -0.268295D-01
     17  0.000000D+00  0.331850D-02 -0.159117D+00 -0.313539D+00  0.464701D-01
     18  0.000000D+00  0.000000D+00 -0.288544D-01  0.499772D-01 -0.130036D+00
               16            17            18 
     16  0.298574D+00
     17  0.481031D-01  0.243029D+00
     18  0.359029D-01 -0.621857D-01  0.901635D-01
 Force constants in internal coordinates: 
                1             2             3             4             5 
      1  0.345595D+00
      2  0.000000D+00  0.345595D+00
      3  0.000000D+00  0.000000D+00  0.345595D+00
      4  0.000000D+00  0.000000D+00  0.000000D+00  0.345595D+00
      5  0.000000D+00  0.000000D+00  0.000000D+00  0.000000D+00  0.000000D+00
      6  0.000000D+00  0.000000D+00  0.000000D+00  0.000000D+00  0.000000D+00
      7  0.000000D+00  0.000000D+00  0.000000D+00  0.000000D+00  0.000000D+00
      8  0.000000D+00  0.000000D+00  0.000000D+00  0.000000D+00  0.000000D+00
      9  0.000000D+00  0.000000D+00  0.000000D+00  0.000000D+00  0.000000D+00
     10  0.000000D+00  0.000000D+00  0.000000D+00  0.000000D+00  0.000000D+00
     11  0.000000D+00  0.000000D+00  0.000000D+00  0.000000D+00  0.000000D+00
     12  0.000000D+00  0.000000D+00  0.000000D+00  0.000000D+00  0.000000D+00
     13  0.000000D+00  0.000000D+00  0.000000D+00  0.000000D+00  0.000000D+00
     14  0.000000D+00  0.000000D+00  0.000000D+00  0.000000D+00  0.000000D+00
     15  0.000000D+00  0.000000D+00  0.000000D+00  0.000000D+00  0.000000D+00
                6             7             8             9            10 
      6  0.247937D+00
      7  0.000000D+00  0.243800D+00
      8  0.000000D+00  0.415497D-01  0.243800D+00
      9  0.000000D+00  0.421965D-01  0.421965D-01  0.242291D+00
     10  0.000000D+00  0.000000D+00  0.000000D+00  0.000000D+00  0.160000D+00
     11  0.000000D+00  0.000000D+00  0.000000D+00  0.000000D+00  0.160000D+00
     12  0.000000D+00 -0.648136D-01 -0.105634D-02  0.644615D-01  0.000000D+00
     13  0.000000D+00  0.637573D-01 -0.637573D-01  0.000000D+00  0.000000D+00
     14  0.000000D+00 -0.211268D-02  0.211268D-02  0.000000D+00  0.000000D+00
     15  0.000000D+00 -0.241481D-01  0.241481D-01  0.000000D+00  0.000000D+00
               11            12            13            14            15 
     11  0.160000D+00
     12  0.000000D+00  0.215561D+00
     13  0.000000D+00 -0.108068D+00  0.216136D+00
     14  0.000000D+00 -0.115000D-02  0.230000D-02  0.690000D-02
     15  0.000000D+00 -0.131446D-01  0.262891D-01  0.788674D-01  0.901458D+00
 Leave Link  716 at Fri Aug 23 16:05:30 2019, MaxMem=  2684354560 cpu:         0.2
 (Enter /soft/gaussian/09-e.01/g09/l103.exe)

 GradGradGradGradGradGradGradGradGradGradGradGradGradGradGradGradGradGrad
 Berny optimization.
 Search for a local minimum.
 Step number   1 out of a maximum of   25
 All quantities printed in internal units (Hartrees-Bohrs-Radians)
 Second derivative matrix not updated -- first step.
 The second derivative matrix:
                          R1        R2        A2        R3        A3
           R1           0.34560
           R2          -0.00000   0.34560
           A2           0.00000   0.00000   0.24380
           R3           0.00000  -0.00000  -0.00000   0.34560
           A3           0.00000  -0.00000   0.04155   0.00000   0.24380
           D3           0.00000   0.00000  -0.06481  -0.00000  -0.00106
           R4           0.00000   0.00000   0.00000  -0.00000  -0.00000
           A4          -0.00000  -0.00000   0.04220   0.00000   0.04220
           D4           0.00000  -0.00000   0.06376  -0.00000  -0.06376
           D6          -0.00000   0.00000  -0.02415   0.00000   0.02415
           A6           0.00000  -0.00000   0.00000  -0.00000  -0.00000
           R5           0.00000   0.00000  -0.00000   0.00000  -0.00000
           A5           0.00000   0.00000   0.00000  -0.00000  -0.00000
           D5          -0.00000   0.00000  -0.00211  -0.00000   0.00211
           R6           0.00000   0.00000   0.00000  -0.00000  -0.00000
                          D3        R4        A4        D4        D6
           D3           0.21556
           R4           0.00000   0.34560
           A4           0.06446   0.00000   0.24229
           D4          -0.10807   0.00000  -0.00000   0.21614
           D6          -0.01314   0.00000  -0.00000   0.02629   0.90146
           A6           0.00000  -0.00000   0.00000  -0.00000  -0.00000
           R5          -0.00000   0.00000  -0.00000  -0.00000  -0.00000
           A5           0.00000  -0.00000   0.00000   0.00000  -0.00000
           D5          -0.00115   0.00000  -0.00000   0.00230   0.07887
           R6           0.00000   0.00000   0.00000  -0.00000  -0.00000
                          A6        R5        A5        D5        R6
           A6           0.16000
           R5           0.00000   0.00000
           A5           0.16000   0.00000   0.16000
           D5          -0.00000  -0.00000  -0.00000   0.00690
           R6          -0.00000  -0.00000  -0.00000  -0.00000   0.24794
 ITU=  0
     Eigenvalues ---    0.07436   0.13417   0.16000   0.23378   0.32726
     Eigenvalues ---    0.34560   0.34560   0.34560   0.34560   0.38934
     Eigenvalues ---    0.904151000.000001000.000001000.000001000.00000
 RFO step:  Lambda=-1.47101222D-02 EMin= 7.43553518D-02
 Linear search not attempted -- first point.
 Variable       Old X    -DE/DX   Delta X   Delta X   Delta X     New X
                                 (Linear)    (Quad)   (Total)
    R1        2.06396   0.00102   0.00000   0.00283   0.00283   2.06679
    R2        2.06396   0.00073   0.00000   0.00203   0.00203   2.06599
    A2        1.91063   0.00402   0.00000   0.02182   0.02182   1.93245
    R3        2.06396   0.00073   0.00000   0.00203   0.00203   2.06599
    A3        1.91063   0.00402   0.00000   0.02068   0.02068   1.93132
    D3        2.09440   0.00637   0.00000   0.04944   0.04944   2.14383
    R4        2.06396   0.07148   0.00000   0.19839   0.19839   2.26235
    A4        1.91063   0.00056   0.00000  -0.01718  -0.01718   1.89345
    D4        4.18879  -0.00000   0.00000   0.02282   0.02282   4.21161
    D6        3.14159  -0.00000   0.00000   0.00008   0.00008   3.14168
    A6        1.48353   0.00285   0.00000   0.01629   0.01629   1.49982
    R5        1.88973  -0.00000   0.00000   0.00000   0.00000   1.88973
    A5        1.57080   0.00285   0.00000   0.00000   0.00000   1.57080
    D5        3.14159  -0.00000   0.00000   0.00000   0.00000   3.14159
    R6        1.66836   0.06431   0.00000   0.00000   0.00000   1.66836
         Item               Value     Threshold  Converged?
 Maximum Force            0.071482     0.000450     NO 
 RMS     Force            0.021728     0.000300     NO 
 Maximum Displacement     0.198393     0.001800     NO 
 RMS     Displacement     0.054040     0.001200     NO 
 Predicted change in Energy=-7.677251D-03
 Lowest energy point so far.  Saving SCF results.
 GradGradGradGradGradGradGradGradGradGradGradGradGradGradGradGradGradGrad

 Leave Link  103 at Fri Aug 23 16:05:30 2019, MaxMem=  2684354560 cpu:         0.1
 (Enter /soft/gaussian/09-e.01/g09/l202.exe)
 ---------------------------------------------------------------------------------------------------
                            Z-MATRIX (ANGSTROMS AND DEGREES)
   CD    Cent   Atom    N1       Length/X        N2       Alpha/Y        N3        Beta/Z          J
 ---------------------------------------------------------------------------------------------------
      1      1  C 
      2      2  H        1   1.093697(     1)
      3      3  H        1   1.093276(     2)      2  110.721(     7)
      4      4  H        1   1.093276(     3)      2  110.656(     8)      3  122.833(    12)      0
      5      5  H        1   1.197186(     4)      2  108.487(     9)      3  241.307(    13)      0
      6         X        5   1.000000(     5)      1   90.000(    10)      2  180.000(    14)      0
      7      6  H        5   0.882857(     6)      6   85.933(    11)      1  180.005(    15)      0
 ---------------------------------------------------------------------------------------------------
                         Z-Matrix orientation:                         
 ---------------------------------------------------------------------
 Center     Atomic      Atomic             Coordinates (Angstroms)
 Number     Number       Type             X           Y           Z
 ---------------------------------------------------------------------
      1          6           0        0.000000    0.000000    0.000000
      2          1           0        0.000000    0.000000    1.093697
      3          1           0        1.022554    0.000000   -0.386829
      4          1           0       -0.554655   -0.859578   -0.385666
      5          1           0       -0.545122    0.995988   -0.379610
      6         -1           0       -0.392886    0.717838   -1.328007
      7          1           0       -0.936640    1.711173   -0.718225
 ---------------------------------------------------------------------
                    Distance matrix (angstroms):
                    1          2          3          4          5
     1  C    0.000000
     2  H    1.093697   0.000000
     3  H    1.093276   1.799326   0.000000
     4  H    1.093276   1.798619   1.796235   0.000000
     5  H    1.197186   1.860049   1.857324   1.855600   0.000000
     6  X    1.559889   2.556228   1.845150   1.844564   1.000000
     7  H    2.078763   2.662418   2.622285   2.620166   0.882857
                    6          7
     6  X    0.000000
     7  H    1.286164   0.000000
 Stoichiometry    CH5(2)
 Framework group  C1[X(CH5)]
 Deg. of freedom    12
 Full point group                 C1      NOp   1
 RotChk:  IX=3 Diff= 1.42D+00
 Largest Abelian subgroup         C1      NOp   1
 Largest concise Abelian subgroup C1      NOp   1
                         Standard orientation:                         
 ---------------------------------------------------------------------
 Center     Atomic      Atomic             Coordinates (Angstroms)
 Number     Number       Type             X           Y           Z
 ---------------------------------------------------------------------
      1          6           0       -0.204184   -0.000130   -0.000162
      2          1           0       -0.581619   -1.019542   -0.120642
      3          1           0       -0.531756    0.634041   -0.828278
      4          1           0       -0.528572    0.420826    0.955255
      5          1           0        0.992474   -0.035379   -0.004718
      6          1           0        1.874579    0.000833   -0.000643
 ---------------------------------------------------------------------
 Rotational constants (GHZ):    155.1073314     67.5543421     67.4935381
 Leave Link  202 at Fri Aug 23 16:05:30 2019, MaxMem=  2684354560 cpu:         0.1
 (Enter /soft/gaussian/09-e.01/g09/l301.exe)
 Standard basis: 6-31G(d) (6D, 7F)
 Ernie: Thresh=  0.10000D-02 Tol=  0.10000D-05 Strict=F.
 There are    25 symmetry adapted cartesian basis functions of A   symmetry.
 There are    25 symmetry adapted basis functions of A   symmetry.
    25 basis functions,    48 primitive gaussians,    25 cartesian basis functions
     6 alpha electrons        5 beta electrons
       nuclear repulsion energy        15.8303041064 Hartrees.
 IExCor=  402 DFT=T Ex+Corr=B3LYP ExCW=0 ScaHFX=  0.200000
 ScaDFX=  0.800000  0.720000  1.000000  0.810000 ScalE2=  1.000000  1.000000
 IRadAn=      5 IRanWt=     -1 IRanGd=            0 ICorTp=0 IEmpDi=  4
 NAtoms=    6 NActive=    6 NUniq=    6 SFac= 1.00D+00 NAtFMM=   60 NAOKFM=F Big=F
 Integral buffers will be    131072 words long.
 Raffenetti 2 integral format.
 Two-electron integral symmetry is turned on.
 Leave Link  301 at Fri Aug 23 16:05:30 2019, MaxMem=  2684354560 cpu:         0.5
 (Enter /soft/gaussian/09-e.01/g09/l302.exe)
 NPDir=0 NMtPBC=     1 NCelOv=     1 NCel=       1 NClECP=     1 NCelD=      1
         NCelK=      1 NCelE2=     1 NClLst=     1 CellRange=     0.0.
 One-electron integrals computed using PRISM.
 NBasis=    25 RedAO= T EigKep=  1.06D-02  NBF=    25
 NBsUse=    25 1.00D-06 EigRej= -1.00D+00 NBFU=    25
 Precomputing XC quadrature grid using
 IXCGrd= 4 IRadAn=           5 IRanWt=          -1 IRanGd=           0 AccXCQ= 0.00D+00.
 Generated NRdTot=       0 NPtTot=           0 NUsed=           0 NTot=          32
 NSgBfM=    25    25    25    25    25 MxSgAt=     6 MxSgA2=     6.
 Leave Link  302 at Fri Aug 23 16:05:30 2019, MaxMem=  2684354560 cpu:         1.6
 (Enter /soft/gaussian/09-e.01/g09/l303.exe)
 DipDrv:  MaxL=1.
 Leave Link  303 at Fri Aug 23 16:05:30 2019, MaxMem=  2684354560 cpu:         0.2
 (Enter /soft/gaussian/09-e.01/g09/l401.exe)
 Initial guess from the checkpoint file:  "/blues/gpfs/home/elliott/Packages/PACC/moldriver/rcdriver/rundir/RXN/CH3.H2/MDUSDFXREFXETQ/0_0/2_1/UHFFFAOYSA-N/CH4.H/HXBDELFRWIQQII/0_0/1_2/UHFFFAOYSA-N/2/ezvlpJU/SCANS/R6/01/RUN/OPTI/A00/Gau-29869.chk"
 B after Tr=    -0.000000    0.000000   -0.000000
         Rot=    0.859611    0.169440   -0.481892    0.011752 Ang=  61.45 deg.
 Guess basis will be translated and rotated to current coordinates.
 JPrj=2 DoOrth=T DoCkMO=T.
 Initial guess <Sx>= 0.0000 <Sy>= 0.0000 <Sz>= 0.5000 <S**2>= 0.7541 S= 0.5020
 Generating alternative initial guess.
 ExpMin= 1.61D-01 ExpMax= 3.05D+03 ExpMxC= 4.57D+02 IAcc=2 IRadAn=         4 AccDes= 0.00D+00
 Harris functional with IExCor=  402 and IRadAn=       4 diagonalized for initial guess.
 HarFok:  IExCor=  402 AccDes= 0.00D+00 IRadAn=         4 IDoV= 1 UseB2=F ITyADJ=14
 ICtDFT=  3500011 ScaDFX=  1.000000  1.000000  1.000000  1.000000
 FoFCou: FMM=F IPFlag=           0 FMFlag=      100000 FMFlg1=           0
         NFxFlg=           0 DoJE=T BraDBF=F KetDBF=T FulRan=T
         wScrn=  0.000000 ICntrl=     500 IOpCl=  0 I1Cent=   200000004 NGrid=           0
         NMat0=    1 NMatS0=      1 NMatT0=    0 NMatD0=    1 NMtDS0=    0 NMtDT0=    0
 Petite list used in FoFCou.
 Harris En= -41.0043214495355    
 Leave Link  401 at Fri Aug 23 16:05:31 2019, MaxMem=  2684354560 cpu:         2.3
 (Enter /soft/gaussian/09-e.01/g09/l502.exe)
 UHF open shell SCF:
 Using DIIS extrapolation, IDIIS=  1040.
 Integral symmetry usage will be decided dynamically.
 Keep R1 and R2 ints in memory in canonical form, NReq=976418.
 IVT=        8268 IEndB=        8268 NGot=  2684354560 MDV=  2684240343
 LenX=  2684240343 LenY=  2684239277
 Requested convergence on RMS density matrix=1.00D-08 within  64 cycles.
 Requested convergence on MAX density matrix=1.00D-06.
 Requested convergence on             energy=1.00D-06.
 No special actions if energy rises.
 FoFCou: FMM=F IPFlag=           0 FMFlag=           0 FMFlg1=           0
         NFxFlg=           0 DoJE=F BraDBF=F KetDBF=F FulRan=T
         wScrn=  0.000000 ICntrl=     600 IOpCl=  0 I1Cent=           0 NGrid=           0
         NMat0=    1 NMatS0=    325 NMatT0=    0 NMatD0=    1 NMtDS0=    0 NMtDT0=    0
 Symmetry not used in FoFCou.
 Integral accuracy reduced to 1.0D-05 until final iterations.

 Cycle   1  Pass 0  IDiag  1:
 E= -40.9947215035843    
 DIIS: error= 8.86D-03 at cycle   1 NSaved=   1.
 NSaved= 1 IEnMin= 1 EnMin= -40.9947215035843     IErMin= 1 ErrMin= 8.86D-03
 ErrMax= 8.86D-03  0.00D+00 EMaxC= 1.00D-01 BMatC= 4.20D-03 BMatP= 4.20D-03
 IDIUse=3 WtCom= 9.11D-01 WtEn= 8.86D-02
 Coeff-Com:  0.100D+01
 Coeff-En:   0.100D+01
 Coeff:      0.100D+01
 Gap=     1.730 Goal=   None    Shift=    0.000
 Gap=     1.862 Goal=   None    Shift=    0.000
 GapD=    1.730 DampG=2.000 DampE=1.000 DampFc=2.0000 IDamp=-1.
 RMSDP=2.31D-03 MaxDP=2.22D-02              OVMax= 4.76D-02

 Cycle   2  Pass 0  IDiag  1:
 E= -40.9967996293333     Delta-E=       -0.002078125749 Rises=F Damp=F
 DIIS: error= 4.77D-03 at cycle   2 NSaved=   2.
 NSaved= 2 IEnMin= 2 EnMin= -40.9967996293333     IErMin= 2 ErrMin= 4.77D-03
 ErrMax= 4.77D-03  0.00D+00 EMaxC= 1.00D-01 BMatC= 1.16D-03 BMatP= 4.20D-03
 IDIUse=3 WtCom= 9.52D-01 WtEn= 4.77D-02
 Coeff-Com:  0.259D+00 0.741D+00
 Coeff-En:   0.000D+00 0.100D+01
 Coeff:      0.247D+00 0.753D+00
 Gap=     0.332 Goal=   None    Shift=    0.000
 Gap=     0.339 Goal=   None    Shift=    0.000
 RMSDP=1.83D-03 MaxDP=2.35D-02 DE=-2.08D-03 OVMax= 1.36D-02

 Cycle   3  Pass 0  IDiag  1:
 E= -40.9970171788612     Delta-E=       -0.000217549528 Rises=F Damp=F
 DIIS: error= 2.63D-03 at cycle   3 NSaved=   3.
 NSaved= 3 IEnMin= 3 EnMin= -40.9970171788612     IErMin= 3 ErrMin= 2.63D-03
 ErrMax= 2.63D-03  0.00D+00 EMaxC= 1.00D-01 BMatC= 4.78D-04 BMatP= 1.16D-03
 IDIUse=3 WtCom= 9.74D-01 WtEn= 2.63D-02
 Coeff-Com: -0.316D-01 0.384D+00 0.647D+00
 Coeff-En:   0.000D+00 0.233D+00 0.767D+00
 Coeff:     -0.307D-01 0.380D+00 0.651D+00
 Gap=     0.331 Goal=   None    Shift=    0.000
 Gap=     0.337 Goal=   None    Shift=    0.000
 RMSDP=4.00D-04 MaxDP=3.49D-03 DE=-2.18D-04 OVMax= 7.99D-03

 Cycle   4  Pass 0  IDiag  1:
 E= -40.9971572343016     Delta-E=       -0.000140055440 Rises=F Damp=F
 DIIS: error= 3.93D-04 at cycle   4 NSaved=   4.
 NSaved= 4 IEnMin= 4 EnMin= -40.9971572343016     IErMin= 4 ErrMin= 3.93D-04
 ErrMax= 3.93D-04  0.00D+00 EMaxC= 1.00D-01 BMatC= 9.00D-06 BMatP= 4.78D-04
 IDIUse=3 WtCom= 9.96D-01 WtEn= 3.93D-03
 Coeff-Com: -0.156D-01-0.703D-02 0.908D-01 0.932D+00
 Coeff-En:   0.000D+00 0.000D+00 0.000D+00 0.100D+01
 Coeff:     -0.155D-01-0.700D-02 0.905D-01 0.932D+00
 Gap=     0.331 Goal=   None    Shift=    0.000
 Gap=     0.337 Goal=   None    Shift=    0.000
 RMSDP=1.94D-04 MaxDP=2.40D-03 DE=-1.40D-04 OVMax= 1.52D-03

 Cycle   5  Pass 0  IDiag  1:
 E= -40.9971617782085     Delta-E=       -0.000004543907 Rises=F Damp=F
 DIIS: error= 1.28D-04 at cycle   5 NSaved=   5.
 NSaved= 5 IEnMin= 5 EnMin= -40.9971617782085     IErMin= 5 ErrMin= 1.28D-04
 ErrMax= 1.28D-04  0.00D+00 EMaxC= 1.00D-01 BMatC= 5.98D-07 BMatP= 9.00D-06
 IDIUse=3 WtCom= 9.99D-01 WtEn= 1.28D-03
 Coeff-Com:  0.464D-02-0.438D-01-0.630D-01-0.182D-01 0.112D+01
 Coeff-En:   0.000D+00 0.000D+00 0.000D+00 0.000D+00 0.100D+01
 Coeff:      0.463D-02-0.438D-01-0.630D-01-0.181D-01 0.112D+01
 Gap=     0.331 Goal=   None    Shift=    0.000
 Gap=     0.337 Goal=   None    Shift=    0.000
 RMSDP=7.47D-05 MaxDP=9.37D-04 DE=-4.54D-06 OVMax= 7.63D-04

 Cycle   6  Pass 0  IDiag  1:
 E= -40.9971622290385     Delta-E=       -0.000000450830 Rises=F Damp=F
 DIIS: error= 1.65D-05 at cycle   6 NSaved=   6.
 NSaved= 6 IEnMin= 6 EnMin= -40.9971622290385     IErMin= 6 ErrMin= 1.65D-05
 ErrMax= 1.65D-05  0.00D+00 EMaxC= 1.00D-01 BMatC= 2.01D-08 BMatP= 5.98D-07
 IDIUse=1 WtCom= 1.00D+00 WtEn= 0.00D+00
 Coeff-Com:  0.731D-03-0.223D-02-0.573D-02-0.426D-01 0.620D-01 0.988D+00
 Coeff:      0.731D-03-0.223D-02-0.573D-02-0.426D-01 0.620D-01 0.988D+00
 Gap=     0.331 Goal=   None    Shift=    0.000
 Gap=     0.337 Goal=   None    Shift=    0.000
 RMSDP=9.94D-06 MaxDP=1.17D-04 DE=-4.51D-07 OVMax= 7.55D-05

 Initial convergence to 1.0D-05 achieved.  Increase integral accuracy.
 Cycle   7  Pass 1  IDiag  1:
 E= -40.9971623736845     Delta-E=       -0.000000144646 Rises=F Damp=F
 DIIS: error= 4.76D-06 at cycle   1 NSaved=   1.
 NSaved= 1 IEnMin= 1 EnMin= -40.9971623736845     IErMin= 1 ErrMin= 4.76D-06
 ErrMax= 4.76D-06  0.00D+00 EMaxC= 1.00D-01 BMatC= 1.72D-09 BMatP= 1.72D-09
 IDIUse=1 WtCom= 1.00D+00 WtEn= 0.00D+00
 Coeff-Com:  0.100D+01
 Coeff:      0.100D+01
 Gap=     0.331 Goal=   None    Shift=    0.000
 Gap=     0.337 Goal=   None    Shift=    0.000
 RMSDP=9.94D-06 MaxDP=1.17D-04 DE=-1.45D-07 OVMax= 2.20D-05

 Cycle   8  Pass 1  IDiag  1:
 E= -40.9971623745377     Delta-E=       -0.000000000853 Rises=F Damp=F
 DIIS: error= 3.75D-06 at cycle   2 NSaved=   2.
 NSaved= 2 IEnMin= 2 EnMin= -40.9971623745377     IErMin= 2 ErrMin= 3.75D-06
 ErrMax= 3.75D-06  0.00D+00 EMaxC= 1.00D-01 BMatC= 6.48D-10 BMatP= 1.72D-09
 IDIUse=1 WtCom= 1.00D+00 WtEn= 0.00D+00
 Coeff-Com:  0.291D+00 0.709D+00
 Coeff:      0.291D+00 0.709D+00
 Gap=     0.331 Goal=   None    Shift=    0.000
 Gap=     0.337 Goal=   None    Shift=    0.000
 RMSDP=8.34D-07 MaxDP=6.75D-06 DE=-8.53D-10 OVMax= 1.20D-05

 Cycle   9  Pass 1  IDiag  1:
 E= -40.9971623747352     Delta-E=       -0.000000000198 Rises=F Damp=F
 DIIS: error= 2.39D-06 at cycle   3 NSaved=   3.
 NSaved= 3 IEnMin= 3 EnMin= -40.9971623747352     IErMin= 3 ErrMin= 2.39D-06
 ErrMax= 2.39D-06  0.00D+00 EMaxC= 1.00D-01 BMatC= 2.38D-10 BMatP= 6.48D-10
 IDIUse=1 WtCom= 1.00D+00 WtEn= 0.00D+00
 Coeff-Com: -0.165D+00 0.333D+00 0.833D+00
 Coeff:     -0.165D+00 0.333D+00 0.833D+00
 Gap=     0.331 Goal=   None    Shift=    0.000
 Gap=     0.337 Goal=   None    Shift=    0.000
 RMSDP=5.11D-07 MaxDP=5.19D-06 DE=-1.98D-10 OVMax= 5.28D-06

 Cycle  10  Pass 1  IDiag  1:
 E= -40.9971623748212     Delta-E=       -0.000000000086 Rises=F Damp=F
 DIIS: error= 3.68D-07 at cycle   4 NSaved=   4.
 NSaved= 4 IEnMin= 4 EnMin= -40.9971623748212     IErMin= 4 ErrMin= 3.68D-07
 ErrMax= 3.68D-07  0.00D+00 EMaxC= 1.00D-01 BMatC= 9.51D-12 BMatP= 2.38D-10
 IDIUse=1 WtCom= 1.00D+00 WtEn= 0.00D+00
 Coeff-Com: -0.874D-01-0.965D-04 0.173D+00 0.914D+00
 Coeff:     -0.874D-01-0.965D-04 0.173D+00 0.914D+00
 Gap=     0.331 Goal=   None    Shift=    0.000
 Gap=     0.337 Goal=   None    Shift=    0.000
 RMSDP=1.64D-07 MaxDP=1.11D-06 DE=-8.60D-11 OVMax= 1.54D-06

 Cycle  11  Pass 1  IDiag  1:
 E= -40.9971623748266     Delta-E=       -0.000000000005 Rises=F Damp=F
 DIIS: error= 5.67D-08 at cycle   5 NSaved=   5.
 NSaved= 5 IEnMin= 5 EnMin= -40.9971623748266     IErMin= 5 ErrMin= 5.67D-08
 ErrMax= 5.67D-08  0.00D+00 EMaxC= 1.00D-01 BMatC= 1.85D-13 BMatP= 9.51D-12
 IDIUse=1 WtCom= 1.00D+00 WtEn= 0.00D+00
 Coeff-Com: -0.329D-02-0.111D-01-0.660D-02 0.934D-01 0.928D+00
 Coeff:     -0.329D-02-0.111D-01-0.660D-02 0.934D-01 0.928D+00
 Gap=     0.331 Goal=   None    Shift=    0.000
 Gap=     0.337 Goal=   None    Shift=    0.000
 RMSDP=2.69D-08 MaxDP=2.92D-07 DE=-5.32D-12 OVMax= 2.26D-07

 Cycle  12  Pass 1  IDiag  1:
 E= -40.9971623748267     Delta-E=       -0.000000000000 Rises=F Damp=F
 DIIS: error= 3.03D-08 at cycle   6 NSaved=   6.
 NSaved= 6 IEnMin= 6 EnMin= -40.9971623748267     IErMin= 6 ErrMin= 3.03D-08
 ErrMax= 3.03D-08  0.00D+00 EMaxC= 1.00D-01 BMatC= 2.27D-14 BMatP= 1.85D-13
 IDIUse=1 WtCom= 1.00D+00 WtEn= 0.00D+00
 Coeff-Com:  0.100D-01-0.304D-02-0.183D-01-0.900D-01 0.567D-03 0.110D+01
 Coeff:      0.100D-01-0.304D-02-0.183D-01-0.900D-01 0.567D-03 0.110D+01
 Gap=     0.331 Goal=   None    Shift=    0.000
 Gap=     0.337 Goal=   None    Shift=    0.000
 RMSDP=1.80D-08 MaxDP=2.33D-07 DE=-1.35D-13 OVMax= 1.22D-07

 Cycle  13  Pass 1  IDiag  1:
 E= -40.9971623748267     Delta-E=       -0.000000000000 Rises=F Damp=F
 DIIS: error= 3.47D-09 at cycle   7 NSaved=   7.
 NSaved= 7 IEnMin= 7 EnMin= -40.9971623748267     IErMin= 7 ErrMin= 3.47D-09
 ErrMax= 3.47D-09  0.00D+00 EMaxC= 1.00D-01 BMatC= 3.55D-16 BMatP= 2.27D-14
 IDIUse=1 WtCom= 1.00D+00 WtEn= 0.00D+00
 Coeff-Com: -0.154D-02 0.350D-03 0.314D-02 0.143D-01-0.149D-01-0.216D+00
 Coeff-Com:  0.121D+01
 Coeff:     -0.154D-02 0.350D-03 0.314D-02 0.143D-01-0.149D-01-0.216D+00
 Coeff:      0.121D+01
 Gap=     0.331 Goal=   None    Shift=    0.000
 Gap=     0.337 Goal=   None    Shift=    0.000
 RMSDP=1.30D-09 MaxDP=1.55D-08 DE=-7.11D-15 OVMax= 1.45D-08

 SCF Done:  E(UB3LYP) =  -40.9971623748     A.U. after   13 cycles
            NFock= 13  Conv=0.13D-08     -V/T= 2.0074
 <Sx>= 0.0000 <Sy>= 0.0000 <Sz>= 0.5000 <S**2>= 0.7550 S= 0.5025
 <L.S>= 0.000000000000E+00
 KE= 4.069493429453D+01 PE=-1.256172009778D+02 EE= 2.809480020199D+01
 Annihilation of the first spin contaminant:
 S**2 before annihilation     0.7550,   after     0.7500
 Leave Link  502 at Fri Aug 23 16:05:31 2019, MaxMem=  2684354560 cpu:         7.1
 (Enter /soft/gaussian/09-e.01/g09/l508.exe)
 QCSCF skips out because SCF is already converged.
 Leave Link  508 at Fri Aug 23 16:05:31 2019, MaxMem=  2684354560 cpu:         0.0
 (Enter /soft/gaussian/09-e.01/g09/l701.exe)
 Compute integral first derivatives.
 ... and contract with generalized density number  0.
 Leave Link  701 at Fri Aug 23 16:05:32 2019, MaxMem=  2684354560 cpu:         1.6
 (Enter /soft/gaussian/09-e.01/g09/l702.exe)
 L702 exits ... SP integral derivatives will be done elsewhere.
 Leave Link  702 at Fri Aug 23 16:05:32 2019, MaxMem=  2684354560 cpu:         0.1
 (Enter /soft/gaussian/09-e.01/g09/l703.exe)
 Compute integral first derivatives, UseDBF=F ICtDFT=           0.
 Integral derivatives from FoFJK, PRISM(SPDF).
 Calling FoFJK, ICntrl=      2127 FMM=F ISym2X=0 I1Cent= 0 IOpClX= 1 NMat=1 NMatS=1 NMatT=0.
 FoFJK:  IHMeth= 1 ICntrl=    2127 DoSepK=F KAlg= 0 I1Cent=   0 FoldK=F
 IRaf=         0 NMat=   1 IRICut=       1 DoRegI=T DoRafI=F ISym2E= 0.
 FoFCou: FMM=F IPFlag=           0 FMFlag=      100000 FMFlg1=         800
         NFxFlg=           0 DoJE=F BraDBF=F KetDBF=F FulRan=T
         wScrn=  0.000000 ICntrl=    2127 IOpCl=  1 I1Cent=           0 NGrid=           0
         NMat0=    1 NMatS0=      1 NMatT0=    0 NMatD0=    1 NMtDS0=    0 NMtDT0=    0
 Symmetry not used in FoFCou.
 Leave Link  703 at Fri Aug 23 16:05:32 2019, MaxMem=  2684354560 cpu:         2.3
 (Enter /soft/gaussian/09-e.01/g09/l716.exe)
 Dipole        =-2.88849346D-01 3.59147438D-03 8.44486160D-04
 ***** Axes restored to original set *****
 -------------------------------------------------------------------
 Center     Atomic                   Forces (Hartrees/Bohr)
 Number     Number              X              Y              Z
 -------------------------------------------------------------------
      1        6           0.016599883   -0.030699784    0.012549380
      2        1          -0.001538495    0.002940467   -0.000800139
      3        1          -0.001107362    0.003113668   -0.001151389
      4        1          -0.001953815    0.002534769   -0.001176149
      5        1           0.007763142   -0.013983625    0.006250570
      6        1          -0.019763354    0.036094506   -0.015672272
 -------------------------------------------------------------------
 Cartesian Forces:  Max     0.036094506 RMS     0.014230147
 -----------------------------------------------------------------------------------------------
                       Internal Coordinate Forces (Hartree/Bohr or radian)
  Cent   Atom   N1       Length/X         N2         Alpha/Y        N3         Beta/Z          J
 -----------------------------------------------------------------------------------------------
      1  C 
      2  H        1  -0.000800(     1)
      3  H        1  -0.000628(     2)      2   0.003034(     7)
      4  H        1  -0.000587(     3)      2   0.003054(     8)      3   0.005831(    12)     0
      5  H        1   0.026847(     4)      2  -0.000016(     9)      3   0.000186(    13)     0
         X        5  -0.000000(     5)      1   0.002185(    10)      2   0.000001(    14)     0
      6  H        5   0.044015(     6)      6   0.002185(    11)      1   0.000006(    15)     0
 -----------------------------------------------------------------------------------------------
 Internal  Forces:  Max     0.044014869 RMS     0.013469808
 Leave Link  716 at Fri Aug 23 16:05:32 2019, MaxMem=  2684354560 cpu:         0.2
 (Enter /soft/gaussian/09-e.01/g09/l103.exe)

 GradGradGradGradGradGradGradGradGradGradGradGradGradGradGradGradGradGrad
 Berny optimization.
 Search for a local minimum.
 Step number   2 out of a maximum of   25
 All quantities printed in internal units (Hartrees-Bohrs-Radians)
 Update second derivatives using D2CorN and points    1    2
 DE= -9.71D-03 DEPred=-7.68D-03 R= 1.27D+00
 TightC=F SS=  1.41D+00  RLast= 2.09D-01 DXNew= 5.0454D-01 6.2789D-01
 Trust test= 1.27D+00 RLast= 2.09D-01 DXMaxT set to 5.05D-01
 The second derivative matrix:
                          R1        R2        A2        R3        A3
           R1           0.34565
           R2           0.00004   0.34563
           A2           0.00012   0.00010   0.24245
           R3           0.00004   0.00003   0.00009   0.34562
           A3           0.00011   0.00009   0.04022   0.00008   0.24250
           D3           0.00031   0.00025  -0.06762   0.00023  -0.00381
           R4           0.00113   0.00094  -0.01210   0.00084  -0.01188
           A4          -0.00017  -0.00013   0.04267  -0.00013   0.04268
           D4           0.00022   0.00017   0.06309   0.00016  -0.06444
           D6           0.00000   0.00000  -0.02415   0.00000   0.02414
           A6           0.00009   0.00008  -0.00099   0.00007  -0.00097
           R5          -0.00000  -0.00000  -0.00000  -0.00000  -0.00000
           A5          -0.00006  -0.00005  -0.00048  -0.00005  -0.00046
           D5          -0.00000  -0.00000  -0.00211  -0.00000   0.00211
           R6           0.00065   0.00047   0.00505   0.00047   0.00479
                          D3        R4        A4        D4        D6
           D3           0.20980
           R4          -0.02506   0.23723
           A4           0.06533   0.00416   0.24238
           D4          -0.10931  -0.00589  -0.00009   0.21621
           D6          -0.01315  -0.00003   0.00000   0.02629   0.90146
           A6          -0.00205  -0.00885   0.00034  -0.00048  -0.00000
           R5          -0.00000   0.00000  -0.00000  -0.00000  -0.00000
           A5          -0.00110  -0.00440   0.00038  -0.00051  -0.00000
           D5          -0.00115  -0.00000   0.00000   0.00230   0.07887
           R6           0.01145   0.04595  -0.00398   0.00528   0.00002
                          A6        R5        A5        D5        R6
           A6           0.15928
           R5           0.00000   0.00000
           A5           0.15964   0.00000   0.16000
           D5          -0.00000  -0.00000  -0.00000   0.00690
           R6           0.00377  -0.00000  -0.00000  -0.00000   0.24794
 ITU=  1  0
     Eigenvalues ---    0.06503   0.13154   0.15865   0.23378   0.24121
     Eigenvalues ---    0.32761   0.34560   0.34560   0.34574   0.38931
     Eigenvalues ---    0.904151000.000001000.000001000.000001000.00000
 RFO step:  Lambda=-6.41112459D-03 EMin= 6.50299391D-02
 Quartic linear search produced a step of  2.00000.
 Variable       Old X    -DE/DX   Delta X   Delta X   Delta X     New X
                                 (Linear)    (Quad)   (Total)
    R1        2.06679  -0.00080   0.00565  -0.01076  -0.00511   2.06168
    R2        2.06599  -0.00063   0.00406  -0.00822  -0.00416   2.06184
    A2        1.93245   0.00303   0.04364   0.05386   0.09750   2.02995
    R3        2.06599  -0.00059   0.00406  -0.00784  -0.00378   2.06222
    A3        1.93132   0.00305   0.04137   0.07470   0.11606   2.04738
    D3        2.14383   0.00583   0.09888   0.20297   0.30185   2.44568
    R4        2.26235   0.02685   0.39679   0.00202   0.39880   2.66115
    A4        1.89345  -0.00002  -0.03436  -0.09918  -0.13354   1.75991
    D4        4.21161   0.00019   0.04563   0.13710   0.18273   4.39434
    D6        3.14168   0.00001   0.00017  -0.00154  -0.00137   3.14031
    A6        1.49982   0.00218   0.03258   0.03631   0.06889   1.56871
    R5        1.88973  -0.00000   0.00000   0.00000   0.00000   1.88973
    A5        1.57080   0.00218   0.00000   0.00000   0.00000   1.57080
    D5        3.14159   0.00000   0.00000   0.00000   0.00000   3.14159
    R6        1.66836   0.04401   0.00000   0.00000   0.00000   1.66836
         Item               Value     Threshold  Converged?
 Maximum Force            0.026847     0.000450     NO 
 RMS     Force            0.008418     0.000300     NO 
 Maximum Displacement     0.398801     0.001800     NO 
 RMS     Displacement     0.148135     0.001200     NO 
 Predicted change in Energy=-7.260966D-03
 Lowest energy point so far.  Saving SCF results.
 GradGradGradGradGradGradGradGradGradGradGradGradGradGradGradGradGradGrad

 Leave Link  103 at Fri Aug 23 16:05:32 2019, MaxMem=  2684354560 cpu:         5.1
 (Enter /soft/gaussian/09-e.01/g09/l202.exe)
 ---------------------------------------------------------------------------------------------------
                            Z-MATRIX (ANGSTROMS AND DEGREES)
   CD    Cent   Atom    N1       Length/X        N2       Alpha/Y        N3        Beta/Z          J
 ---------------------------------------------------------------------------------------------------
      1      1  C 
      2      2  H        1   1.090994(     1)
      3      3  H        1   1.091077(     2)      2  116.308(     7)
      4      4  H        1   1.091278(     3)      2  117.306(     8)      3  140.127(    12)      0
      5      5  H        1   1.408222(     4)      2  100.835(     9)      3  251.777(    13)      0
      6         X        5   1.000000(     5)      1   90.000(    10)      2  180.000(    14)      0
      7      6  H        5   0.882857(     6)      6   89.880(    11)      1  179.926(    15)      0
 ---------------------------------------------------------------------------------------------------
                         Z-Matrix orientation:                         
 ---------------------------------------------------------------------
 Center     Atomic      Atomic             Coordinates (Angstroms)
 Number     Number       Type             X           Y           Z
 ---------------------------------------------------------------------
      1          6           0        0.000000    0.000000    0.000000
      2          1           0        0.000000    0.000000    1.090994
      3          1           0        0.978070    0.000000   -0.483557
      4          1           0       -0.744196   -0.621642   -0.500621
      5          1           0       -0.432524    1.313748   -0.264724
      6         -1           0       -0.373738    1.135192   -1.246896
      7          1           0       -0.702500    2.137399   -0.432499
 ---------------------------------------------------------------------
                    Distance matrix (angstroms):
                    1          2          3          4          5
     1  C    0.000000
     2  H    1.090994   0.000000
     3  H    1.091077   1.853600   0.000000
     4  H    1.091278   1.863734   1.831101   0.000000
     5  H    1.408222   1.936746   1.939999   1.974467   0.000000
     6  X    1.727163   2.625657   1.923209   1.944384   1.000000
     7  H    2.291078   2.717170   2.719448   2.760197   0.882857
                    6          7
     6  X    0.000000
     7  H    1.332572   0.000000
 Stoichiometry    CH5(2)
 Framework group  C1[X(CH5)]
 Deg. of freedom    12
 Full point group                 C1      NOp   1
 RotChk:  IX=1 Diff= 5.42D-01
 Largest Abelian subgroup         C1      NOp   1
 Largest concise Abelian subgroup C1      NOp   1
                         Standard orientation:                         
 ---------------------------------------------------------------------
 Center     Atomic      Atomic             Coordinates (Angstroms)
 Number     Number       Type             X           Y           Z
 ---------------------------------------------------------------------
      1          6           0       -0.275210   -0.003973    0.001337
      2          1           0       -0.471960   -1.068581    0.136129
      3          1           0       -0.482758    0.404556   -0.988852
      4          1           0       -0.542701    0.662522    0.822995
      5          1           0        1.132939    0.008056    0.009099
      6          1           0        2.015741    0.017284    0.012606
 ---------------------------------------------------------------------
 Rotational constants (GHZ):    146.6705802     58.8800170     58.3929237
 Leave Link  202 at Fri Aug 23 16:05:32 2019, MaxMem=  2684354560 cpu:         0.1
 (Enter /soft/gaussian/09-e.01/g09/l301.exe)
 Standard basis: 6-31G(d) (6D, 7F)
 Ernie: Thresh=  0.10000D-02 Tol=  0.10000D-05 Strict=F.
 There are    25 symmetry adapted cartesian basis functions of A   symmetry.
 There are    25 symmetry adapted basis functions of A   symmetry.
    25 basis functions,    48 primitive gaussians,    25 cartesian basis functions
     6 alpha electrons        5 beta electrons
       nuclear repulsion energy        15.2231428564 Hartrees.
 IExCor=  402 DFT=T Ex+Corr=B3LYP ExCW=0 ScaHFX=  0.200000
 ScaDFX=  0.800000  0.720000  1.000000  0.810000 ScalE2=  1.000000  1.000000
 IRadAn=      5 IRanWt=     -1 IRanGd=            0 ICorTp=0 IEmpDi=  4
 NAtoms=    6 NActive=    6 NUniq=    6 SFac= 1.00D+00 NAtFMM=   60 NAOKFM=F Big=F
 Integral buffers will be    131072 words long.
 Raffenetti 2 integral format.
 Two-electron integral symmetry is turned on.
 Leave Link  301 at Fri Aug 23 16:05:33 2019, MaxMem=  2684354560 cpu:         0.5
 (Enter /soft/gaussian/09-e.01/g09/l302.exe)
 NPDir=0 NMtPBC=     1 NCelOv=     1 NCel=       1 NClECP=     1 NCelD=      1
         NCelK=      1 NCelE2=     1 NClLst=     1 CellRange=     0.0.
 One-electron integrals computed using PRISM.
 NBasis=    25 RedAO= T EigKep=  1.48D-02  NBF=    25
 NBsUse=    25 1.00D-06 EigRej= -1.00D+00 NBFU=    25
 Precomputing XC quadrature grid using
 IXCGrd= 4 IRadAn=           5 IRanWt=          -1 IRanGd=           0 AccXCQ= 0.00D+00.
 Generated NRdTot=       0 NPtTot=           0 NUsed=           0 NTot=          32
 NSgBfM=    25    25    25    25    25 MxSgAt=     6 MxSgA2=     6.
 Leave Link  302 at Fri Aug 23 16:05:33 2019, MaxMem=  2684354560 cpu:         1.6
 (Enter /soft/gaussian/09-e.01/g09/l303.exe)
 DipDrv:  MaxL=1.
 Leave Link  303 at Fri Aug 23 16:05:33 2019, MaxMem=  2684354560 cpu:         0.2
 (Enter /soft/gaussian/09-e.01/g09/l401.exe)
 Initial guess from the checkpoint file:  "/blues/gpfs/home/elliott/Packages/PACC/moldriver/rcdriver/rundir/RXN/CH3.H2/MDUSDFXREFXETQ/0_0/2_1/UHFFFAOYSA-N/CH4.H/HXBDELFRWIQQII/0_0/1_2/UHFFFAOYSA-N/2/ezvlpJU/SCANS/R6/01/RUN/OPTI/A00/Gau-29869.chk"
 B after Tr=     0.000000   -0.000000   -0.000000
         Rot=    0.991616    0.128406    0.007200   -0.012567 Ang=  14.85 deg.
 Guess basis will be translated and rotated to current coordinates.
 JPrj=2 DoOrth=T DoCkMO=T.
 Initial guess <Sx>= 0.0000 <Sy>= 0.0000 <Sz>= 0.5000 <S**2>= 0.7568 S= 0.5034
 Generating alternative initial guess.
 ExpMin= 1.61D-01 ExpMax= 3.05D+03 ExpMxC= 4.57D+02 IAcc=2 IRadAn=         4 AccDes= 0.00D+00
 Harris functional with IExCor=  402 and IRadAn=       4 diagonalized for initial guess.
 HarFok:  IExCor=  402 AccDes= 0.00D+00 IRadAn=         4 IDoV= 1 UseB2=F ITyADJ=14
 ICtDFT=  3500011 ScaDFX=  1.000000  1.000000  1.000000  1.000000
 FoFCou: FMM=F IPFlag=           0 FMFlag=      100000 FMFlg1=           0
         NFxFlg=           0 DoJE=T BraDBF=F KetDBF=T FulRan=T
         wScrn=  0.000000 ICntrl=     500 IOpCl=  0 I1Cent=   200000004 NGrid=           0
         NMat0=    1 NMatS0=      1 NMatT0=    0 NMatD0=    1 NMtDS0=    0 NMtDT0=    0
 Petite list used in FoFCou.
 Harris En= -41.0040250066224    
 Leave Link  401 at Fri Aug 23 16:05:33 2019, MaxMem=  2684354560 cpu:         2.2
 (Enter /soft/gaussian/09-e.01/g09/l502.exe)
 UHF open shell SCF:
 Using DIIS extrapolation, IDIIS=  1040.
 Integral symmetry usage will be decided dynamically.
 Keep R1 and R2 ints in memory in canonical form, NReq=976418.
 IVT=        8268 IEndB=        8268 NGot=  2684354560 MDV=  2684240343
 LenX=  2684240343 LenY=  2684239277
 Requested convergence on RMS density matrix=1.00D-08 within  64 cycles.
 Requested convergence on MAX density matrix=1.00D-06.
 Requested convergence on             energy=1.00D-06.
 No special actions if energy rises.
 FoFCou: FMM=F IPFlag=           0 FMFlag=           0 FMFlg1=           0
         NFxFlg=           0 DoJE=F BraDBF=F KetDBF=F FulRan=T
         wScrn=  0.000000 ICntrl=     600 IOpCl=  0 I1Cent=           0 NGrid=           0
         NMat0=    1 NMatS0=    325 NMatT0=    0 NMatD0=    1 NMtDS0=    0 NMtDT0=    0
 Symmetry not used in FoFCou.
 Integral accuracy reduced to 1.0D-05 until final iterations.

 Cycle   1  Pass 0  IDiag  1:
 E= -40.9897670411280    
 DIIS: error= 1.86D-02 at cycle   1 NSaved=   1.
 NSaved= 1 IEnMin= 1 EnMin= -40.9897670411280     IErMin= 1 ErrMin= 1.86D-02
 ErrMax= 1.86D-02  0.00D+00 EMaxC= 1.00D-01 BMatC= 1.74D-02 BMatP= 1.74D-02
 IDIUse=3 WtCom= 8.14D-01 WtEn= 1.86D-01
 Coeff-Com:  0.100D+01
 Coeff-En:   0.100D+01
 Coeff:      0.100D+01
 Recover alternate guess density for next cycle.
 RMSDP=1.40D-02 MaxDP=2.02D-01              OVMax= 0.00D+00

 Cycle   2  Pass 0  IDiag  1:
 E= -40.9367752284131     Delta-E=        0.052991812715 Rises=F Damp=F
 Switch densities from cycles 1 and 2 for lowest energy.
 DIIS: error= 4.26D-02 at cycle   2 NSaved=   2.
 NSaved= 2 IEnMin= 1 EnMin= -40.9897670411280     IErMin= 1 ErrMin= 1.86D-02
[...]
                       Internal Coordinate Forces (Hartree/Bohr or radian)
  Cent   Atom   N1       Length/X         N2         Alpha/Y        N3         Beta/Z          J
 -----------------------------------------------------------------------------------------------
      1  C 
      2  H        1  -0.009524(     1)
      3  H        1   0.009469(     2)      2  -0.003334(     7)
      4  H        1   0.008952(     3)      2  -0.003363(     8)      3  -0.002584(    12)     0
      5  H        1   0.000315(     4)      2  -0.000240(     9)      3  -0.000106(    13)     0
         X        5  -0.000000(     5)      1  -0.001301(    10)      2   0.000006(    14)     0
      6  H        5  -0.063187(     6)      6  -0.001301(    11)      1  -0.000010(    15)     0
 -----------------------------------------------------------------------------------------------
 Internal  Forces:  Max     0.063187392 RMS     0.016903252
 Leave Link  716 at Fri Aug 23 16:06:12 2019, MaxMem=  2684354560 cpu:         0.2
 (Enter /soft/gaussian/09-e.01/g09/l103.exe)

 GradGradGradGradGradGradGradGradGradGradGradGradGradGradGradGradGradGrad
 Berny optimization.
 Search for a local minimum.
 Step number  25 out of a maximum of   25
 All quantities printed in internal units (Hartrees-Bohrs-Radians)
 Update second derivatives using D2CorN and points   13   14   15   17   18
                                                         19   20   21   22   23

                                                         24   25   16
 The second derivative matrix:
                          R1        R2        A2        R3        A3
           R1           0.35103
           R2          -0.00319   0.34915
           A2           0.01042  -0.00659   0.26208
           R3          -0.00332   0.00415  -0.00701   0.35051
           A3           0.01450  -0.00550   0.05378  -0.00561   0.25560
           D3           0.00396  -0.00185  -0.05209  -0.00253   0.02067
           R4          -0.00007  -0.00028  -0.00056  -0.00048   0.00744
           A4          -0.00321   0.00500   0.03030   0.00314   0.02887
           D4          -0.00156  -0.00177   0.07397   0.00055  -0.04599
           D6          -0.00048  -0.00015  -0.02331  -0.00006   0.02423
           A6          -0.00538   0.00230   0.01577   0.00076   0.02726
           R5          -0.00000   0.00000  -0.00000   0.00000  -0.00000
           A5           0.00683  -0.00273   0.01323  -0.00492   0.01993
           D5          -0.00004  -0.00001  -0.00203  -0.00000   0.00214
           R6          -0.00052  -0.00119   0.00395  -0.00146  -0.00048
                          D3        R4        A4        D4        D6
           D3           0.14825
           R4           0.00648   0.00377
           A4           0.05480   0.01275   0.22671
           D4          -0.10740  -0.01221   0.02179   0.18149
           D6          -0.01178  -0.00257   0.00055   0.02550   0.90151
           A6          -0.05854   0.00396  -0.00930  -0.01024   0.00094
           R5           0.00000  -0.00000   0.00000  -0.00000  -0.00000
           A5          -0.06295   0.00683   0.00091  -0.02641   0.00009
           D5          -0.00103  -0.00025   0.00009   0.00218   0.07887
           R6          -0.00083   0.00655   0.00210  -0.00449   0.00023
                          A6        R5        A5        D5        R6
           A6           0.07352
           R5           0.00000   0.00000
           A5           0.09315   0.00000   0.16000
           D5           0.00009  -0.00000  -0.00000   0.00690
           R6           0.00334  -0.00000  -0.00000  -0.00000   0.24794
 ITU=  0  0  0  0  0  0  0  0  0  1  1  1  1  0  0  0
 Skip linear search -- no minimum in search direction.
 Steepest descent instead of Quadratic search.
 Steepest descent step scaled to max of 0.05000.
 Variable       Old X    -DE/DX   Delta X   Delta X   Delta X     New X
                                 (Linear)    (Quad)   (Total)
    R1        2.07200  -0.00952   0.00000  -0.05000  -0.05000   2.02200
    R2        2.02291   0.00947   0.00000   0.04971   0.04971   2.07262
    A2        2.09820  -0.00333   0.00000  -0.01750  -0.01750   2.08069
    R3        2.02419   0.00895   0.00000   0.04700   0.04700   2.07119
    A3        2.09834  -0.00336   0.00000  -0.01766  -0.01766   2.08068
    D3        3.33649  -0.00258   0.00000  -0.01357  -0.01357   3.32292
    R4        4.99093   0.00031   0.00000   0.00165   0.00165   4.99259
    A4        1.52362  -0.00024   0.00000  -0.00126  -0.00126   1.52236
    D4        4.83684  -0.00011   0.00000  -0.00055  -0.00055   4.83629
    D6        3.14023  -0.00001   0.00000  -0.00005  -0.00005   3.14018
    A6        1.99749  -0.00130   0.00000  -0.00683  -0.00683   1.99066
    R5        1.88973  -0.00000   0.00000   0.00000   0.00000   1.88973
    A5        1.57080  -0.00130   0.00000   0.00000   0.00000   1.57080
    D5        3.14159   0.00001   0.00000   0.00000   0.00000   3.14159
    R6        1.66836  -0.06319   0.00000   0.00000   0.00000   1.66836
         Item               Value     Threshold  Converged?
 Maximum Force            0.009524     0.000450     NO 
 RMS     Force            0.005147     0.000300     NO 
 Maximum Displacement     0.050000     0.001800     NO 
 RMS     Displacement     0.023143     0.001200     NO 
 Predicted change in Energy=-7.010194D-04
 Optimization stopped.
    -- Number of steps exceeded,  NStep=  25
    -- Flag reset to prevent archiving.
                       ----------------------------
                       ! Non-Optimized Parameters !
                       ! (Angstroms and Degrees)  !
 ----------------------                            ----------------------
 !      Name          Value   Derivative information (Atomic Units)     !
 ------------------------------------------------------------------------
 !       R1          1.07     -DE/DX =   -0.0095                        !
 !       R2          1.0968   -DE/DX =    0.0095                        !
 !       A2        119.2149   -DE/DX =   -0.0033                        !
 !       R3          1.096    -DE/DX =    0.009                         !
 !       A3        119.2141   -DE/DX =   -0.0034                        !
 !       D3        190.3892   -DE/DX =   -0.0026                        !
 !       R4          2.642    -DE/DX =    0.0003                        !
 !       A4         87.225    -DE/DX =   -0.0002                        !
 !       D4        277.099    -DE/DX =   -0.0001                        !
 !       D6        179.9189   -DE/DX =    0.0                           !
 !       A6        114.0563   -DE/DX =   -0.0013                        !
 !       R5          1.0      -DE/DX =    0.0                           !
 !       A5         90.0      -DE/DX =   -0.0013                        !
 !       D5        180.0      -DE/DX =    0.0                           !
 !       R6          0.8829   -DE/DX =   -0.0632                        !
 ------------------------------------------------------------------------
 GradGradGradGradGradGradGradGradGradGradGradGradGradGradGradGradGradGrad

 Largest change from initial coordinates is atom    6       2.474 Angstoms.
 Leave Link  103 at Fri Aug 23 16:06:12 2019, MaxMem=  2684354560 cpu:         0.1
 (Enter /soft/gaussian/09-e.01/g09/l202.exe)
 ---------------------------------------------------------------------------------------------------
                            Z-MATRIX (ANGSTROMS AND DEGREES)
   CD    Cent   Atom    N1       Length/X        N2       Alpha/Y        N3        Beta/Z          J
 ---------------------------------------------------------------------------------------------------
      1      1  C 
      2      2  H        1   1.096457(     1)
      3      3  H        1   1.070476(     2)      2  120.218(     7)
      4      4  H        1   1.071156(     3)      2  120.226(     8)      3  191.167(    12)      0
      5      5  H        1   2.641088(     4)      2   87.297(     9)      3  277.131(    13)      0
      6         X        5   1.000000(     5)      1   90.000(    10)      2  180.000(    14)      0
      7      6  H        5   0.882857(     6)      6  114.448(    11)      1  179.922(    15)      0
 ---------------------------------------------------------------------------------------------------
                         Z-Matrix orientation:                         
 ---------------------------------------------------------------------
 Center     Atomic      Atomic             Coordinates (Angstroms)
 Number     Number       Type             X           Y           Z
 ---------------------------------------------------------------------
      1          6           0        0.000000    0.000000    0.000000
      2          1           0        0.000000    0.000000    1.096457
      3          1           0        0.925019    0.000000   -0.538758
      4          1           0       -0.908009    0.179241   -0.539229
      5          1           0        0.327485    2.617745    0.124547
      6         -1           0        0.333339    2.664538   -0.874341
      7          1           0        0.426087    3.397107    0.527423
 ---------------------------------------------------------------------
                    Distance matrix (angstroms):
                    1          2          3          4          5
     1  C    0.000000
     2  H    1.096457   0.000000
     3  H    1.070476   1.878720   0.000000
     4  H    1.071156   1.879382   1.841770   0.000000
     5  H    2.641088   2.811485   2.765793   2.813067   0.000000
     6  X    2.824066   3.330904   2.749993   2.798204   1.000000
     7  H    3.464110   3.470689   3.595276   3.643106   0.882857
                    6          7
     6  X    0.000000
     7  H    1.584362   0.000000
 Stoichiometry    CH5(2)
 Framework group  C1[X(CH5)]
 Deg. of freedom    12
 Full point group                 C1      NOp   1
 RotChk:  IX=2 Diff= 3.17D-16
 Largest Abelian subgroup         C1      NOp   1
 Largest concise Abelian subgroup C1      NOp   1
                         Standard orientation:                         
 ---------------------------------------------------------------------
 Center     Atomic      Atomic             Coordinates (Angstroms)
 Number     Number       Type             X           Y           Z
 ---------------------------------------------------------------------
      1          6           0       -0.570619    0.009481    0.002696
      2          1           0       -0.435345    1.097425    0.019937
      3          1           0       -0.519677   -0.554226    0.911299
      4          1           0       -0.575986   -0.518530   -0.929264
      5          1           0        2.062723   -0.192215   -0.010528
      6          1           0        2.891998    0.110657   -0.007620
 ---------------------------------------------------------------------
 Rotational constants (GHZ):    142.2542274     27.3877336     27.1861018
 Leave Link  202 at Fri Aug 23 16:06:12 2019, MaxMem=  2684354560 cpu:         0.1
 (Enter /soft/gaussian/09-e.01/g09/l601.exe)
 Copying SCF densities to generalized density rwf, IOpCl= 1 IROHF=0.

 **********************************************************************

            Population analysis using the SCF density.

 **********************************************************************

 Orbital symmetries:
 Alpha Orbitals:
       Occupied  (A) (A) (A) (A) (A) (A)
       Virtual   (A) (A) (A) (A) (A) (A) (A) (A) (A) (A) (A) (A)
                 (A) (A) (A) (A) (A) (A) (A)
 Beta  Orbitals:
       Occupied  (A) (A) (A) (A) (A)
       Virtual   (A) (A) (A) (A) (A) (A) (A) (A) (A) (A) (A) (A)
                 (A) (A) (A) (A) (A) (A) (A) (A)
 The electronic state is 2-A.
 Alpha  occ. eigenvalues --  -10.19539  -0.68688  -0.42146  -0.42004  -0.40332
 Alpha  occ. eigenvalues --   -0.22830
 Alpha virt. eigenvalues --    0.07415   0.11473   0.17883   0.18182   0.53454
 Alpha virt. eigenvalues --    0.54273   0.54774   0.62414   0.78502   0.90611
 Alpha virt. eigenvalues --    0.91826   0.96437   1.09822   1.64445   1.64548
 Alpha virt. eigenvalues --    2.00769   2.17148   2.20717   4.08624
  Beta  occ. eigenvalues --  -10.18144  -0.64705  -0.41177  -0.41059  -0.40062
  Beta virt. eigenvalues --   -0.05942   0.08424   0.13060   0.18458   0.18741
  Beta virt. eigenvalues --    0.54260   0.55293   0.59736   0.65560   0.80208
  Beta virt. eigenvalues --    0.91157   0.92364   0.98959   1.10352   1.71391
  Beta virt. eigenvalues --    1.71502   2.09204   2.18377   2.21898   4.12343
          Condensed to atoms (all electrons):
               1          2          3          4          5          6
     1  C    5.339549   0.379580   0.381003   0.380955   0.011216  -0.004937
     2  H    0.379580   0.512410  -0.028949  -0.028888   0.000092   0.000034
     3  H    0.381003  -0.028949   0.511323  -0.031667   0.000369  -0.000039
     4  H    0.380955  -0.028888  -0.031667   0.511497   0.000314  -0.000015
     5  H    0.011216   0.000092   0.000369   0.000314   0.614799   0.369893
     6  H   -0.004937   0.000034  -0.000039  -0.000015   0.369893   0.652500
          Atomic-Atomic Spin Densities.
               1          2          3          4          5          6
     1  C    1.152359  -0.008823  -0.009323  -0.009293   0.009771  -0.005302
     2  H   -0.008823  -0.043672   0.000970   0.000970   0.000106  -0.000056
     3  H   -0.009323   0.000970  -0.042570   0.001099   0.000089  -0.000037
     4  H   -0.009293   0.000970   0.001099  -0.042597   0.000080  -0.000035
     5  H    0.009771   0.000106   0.000089   0.000080  -0.012743  -0.007364
     6  H   -0.005302  -0.000056  -0.000037  -0.000035  -0.007364   0.043519
 Mulliken charges and spin densities:
               1          2
     1  C   -0.487365   1.129390
     2  H    0.165721  -0.050506
     3  H    0.167960  -0.049772
     4  H    0.167804  -0.049777
     5  H    0.003317  -0.010060
     6  H   -0.017436   0.030725
 Sum of Mulliken charges =  -0.00000   1.00000
 Mulliken charges and spin densities with hydrogens summed into heavy atoms:
               1          2
     1  C   -0.000000   1.000000
 Electronic spatial extent (au):  <R**2>=             89.1991
 Charge=             -0.0000 electrons
 Dipole moment (field-independent basis, Debye):
    X=             -0.0987    Y=             -0.0216    Z=             -0.0033  Tot=              0.1011
 Quadrupole moment (field-independent basis, Debye-Ang):
   XX=            -10.9435   YY=             -9.0773   ZZ=             -9.2312
   XY=              0.2608   XZ=              0.0556   YZ=             -0.0008
 Traceless Quadrupole moment (field-independent basis, Debye-Ang):
   XX=             -1.1929   YY=              0.6734   ZZ=              0.5195
   XY=              0.2608   XZ=              0.0556   YZ=             -0.0008
 Octapole moment (field-independent basis, Debye-Ang**2):
  XXX=             -0.2170  YYY=              0.8195  ZZZ=             -0.0342  XYY=             -1.3587
  XXY=              0.6091  XXZ=             -0.0465  XZZ=             -1.5779  YZZ=             -0.7836
  YYZ=              0.0468  XYZ=             -0.0203
 Hexadecapole moment (field-independent basis, Debye-Ang**3):
 XXXX=            -97.5963 YYYY=            -16.2211 ZZZZ=            -15.7945 XXXY=              3.2264
 XXXZ=              0.1299 YYYX=              0.0004 YYYZ=             -0.0037 ZZZX=              0.1512
 ZZZY=             -0.0045 XXYY=            -20.7121 XXZZ=            -20.8532 YYZZ=             -5.3568
 XXYZ=              0.0186 YYXZ=              0.0212 ZZXY=              0.5129
 N-N= 1.340718623304D+01 E-N=-1.207296860536D+02  KE= 4.049041188576D+01
                          Isotropic Fermi Contact Couplings
        Atom                 a.u.       MegaHertz       Gauss      10(-4) cm-1
     1  C(13)              0.11429     128.48753      45.84754      42.85883
     2  H(1)              -0.01546     -69.09186     -24.65369     -23.04656
     3  H(1)              -0.01519     -67.88835     -24.22425     -22.64512
     4  H(1)              -0.01519     -67.90321     -24.22955     -22.65007
     5  H(1)              -0.00328     -14.67141      -5.23512      -4.89386
     6  H(1)               0.01001      44.76562      15.97349      14.93220
 --------------------------------------------------------
       Center         ----  Spin Dipole Couplings  ----
                      3XX-RR        3YY-RR        3ZZ-RR
 --------------------------------------------------------
     1   Atom        1.068294     -0.531110     -0.537184
     2   Atom       -0.005227      0.074947     -0.069720
     3   Atom       -0.004769     -0.031239      0.036008
     4   Atom       -0.004943     -0.036359      0.041302
     5   Atom        0.026396     -0.012603     -0.013793
     6   Atom        0.006592     -0.003455     -0.003137
 --------------------------------------------------------
                        XY            XZ            YZ
 --------------------------------------------------------
     1   Atom       -0.105750     -0.051362      0.003410
     2   Atom        0.011063     -0.001760      0.002500
     3   Atom       -0.007135      0.001943     -0.067499
     4   Atom       -0.003025      0.000550      0.064904
     5   Atom        0.000729      0.000028      0.000014
     6   Atom       -0.000370     -0.000003     -0.000002
 --------------------------------------------------------


 ---------------------------------------------------------------------------------
              Anisotropic Spin Dipole Couplings in Principal Axis System
 ---------------------------------------------------------------------------------

       Atom             a.u.   MegaHertz   Gauss  10(-4) cm-1        Axes

              Baa    -0.5388   -72.305   -25.800   -24.118  0.0293 -0.0397  0.9988
     1 C(13)  Bbb    -0.5381   -72.204   -25.764   -24.085  0.0668  0.9971  0.0377
              Bcc     1.0769   144.509    51.565    48.203  0.9973 -0.0657 -0.0319
 
              Baa    -0.0698   -37.254   -13.293   -12.427  0.0306 -0.0196  0.9993
     2 H(1)   Bbb    -0.0067    -3.552    -1.267    -1.185  0.9905 -0.1333 -0.0329
              Bcc     0.0765    40.806    14.561    13.611  0.1338  0.9909  0.0153
 
              Baa    -0.0734   -39.161   -13.974   -13.063  0.0735  0.8493  0.5227
     3 H(1)   Bbb    -0.0048    -2.534    -0.904    -0.845  0.9952 -0.0282 -0.0941
              Bcc     0.0781    41.696    14.878    13.908  0.0652 -0.5271  0.8473
 
              Baa    -0.0733   -39.101   -13.952   -13.043  0.0424  0.8692 -0.4926
     4 H(1)   Bbb    -0.0048    -2.578    -0.920    -0.860  0.9990 -0.0309  0.0316
              Bcc     0.0781    41.679    14.872    13.903 -0.0122  0.4934  0.8697
 
              Baa    -0.0138    -7.359    -2.626    -2.455 -0.0005 -0.0112  0.9999
     5 H(1)   Bbb    -0.0126    -6.731    -2.402    -2.245 -0.0187  0.9998  0.0112
              Bcc     0.0264    14.091     5.028     4.700  0.9998  0.0187  0.0007
 
              Baa    -0.0035    -1.851    -0.660    -0.617  0.0367  0.9993  0.0050
     6 H(1)   Bbb    -0.0031    -1.674    -0.597    -0.558  0.0001 -0.0050  1.0000
              Bcc     0.0066     3.525     1.258     1.176  0.9993 -0.0367 -0.0003
 

 ---------------------------------------------------------------------------------

 No NMR shielding tensors so no spin-rotation constants.
 Leave Link  601 at Fri Aug 23 16:06:13 2019, MaxMem=  2684354560 cpu:         3.1
 (Enter /soft/gaussian/09-e.01/g09/l9999.exe)


 If your ship doesn't come in, swim out to it!
                          -- Jonathan Winters
 Error termination request processed by link 9999.
 Error termination via Lnk1e in /soft/gaussian/09-e.01/g09/l9999.exe at Fri Aug 23 16:06:13 2019.
 Job cpu time:       0 days  0 hours  6 minutes 37.6 seconds.
 File lengths (MBytes):  RWF=     77 Int=      0 D2E=      0 Chk=      2 Scr=      2
