 Entering Gaussian System, Link 0=g09
 Input=run.inp
 Output=run.out
 Initial command:
 /soft/gaussian/09-e.01/g09/l1.exe "/blues/gpfs/home/elliott/Packages/PACC/moldriver/thermodriver/rundir/SPC/CH3/WCYWZMWISLQXQU/0/2/UHFFFAOYSA-N/ezvlpJU/RUN/HESS/A00/Gau-13367.inp" -scrdir="/blues/gpfs/home/elliott/Packages/PACC/moldriver/thermodriver/rundir/SPC/CH3/WCYWZMWISLQXQU/0/2/UHFFFAOYSA-N/ezvlpJU/RUN/HESS/A00/"
 Entering Link 1 = /soft/gaussian/09-e.01/g09/l1.exe PID=     13368.
  
 Copyright (c) 1988,1990,1992,1993,1995,1998,2003,2009,2015,
            Gaussian, Inc.  All Rights Reserved.
  
 This is part of the Gaussian(R) 09 program.  It is based on
 the Gaussian(R) 03 system (copyright 2003, Gaussian, Inc.),
 the Gaussian(R) 98 system (copyright 1998, Gaussian, Inc.),
 the Gaussian(R) 94 system (copyright 1995, Gaussian, Inc.),
 the Gaussian 92(TM) system (copyright 1992, Gaussian, Inc.),
 the Gaussian 90(TM) system (copyright 1990, Gaussian, Inc.),
 the Gaussian 88(TM) system (copyright 1988, Gaussian, Inc.),
 the Gaussian 86(TM) system (copyright 1986, Carnegie Mellon
 University), and the Gaussian 82(TM) system (copyright 1983,
 Carnegie Mellon University). Gaussian is a federally registered
 trademark of Gaussian, Inc.
  
 This software contains proprietary and confidential information,
 including trade secrets, belonging to Gaussian, Inc.
  
 This software is provided under written license and may be
 used, copied, transmitted, or stored only in accord with that
 written license.
  
 The following legend is applicable only to US Government
 contracts under FAR:
  
                    RESTRICTED RIGHTS LEGEND
  
 Use, reproduction and disclosure by the US Government is
 subject to restrictions as set forth in subparagraphs (a)
 and (c) of the Commercial Computer Software - Restricted
 Rights clause in FAR 52.227-19.
  
 Gaussian, Inc.
 340 Quinnipiac St., Bldg. 40, Wallingford CT 06492
  
  
 ---------------------------------------------------------------
 Warning -- This program may not be used in any manner that
 competes with the business of Gaussian, Inc. or will provide
 assistance to any competitor of Gaussian, Inc.  The licensee
 of this program is prohibited from giving any competitor of
 Gaussian, Inc. access to this program.  By using this program,
 the user acknowledges that Gaussian, Inc. is engaged in the
 business of creating and licensing software in the field of
 computational chemistry and represents and warrants to the
 licensee that it is not a competitor of Gaussian, Inc. and that
 it will not use this program in any manner prohibited above.
 ---------------------------------------------------------------
  

 Cite this work as:
 Gaussian 09, Revision E.01,
 M. J. Frisch, G. W. Trucks, H. B. Schlegel, G. E. Scuseria, 
 M. A. Robb, J. R. Cheeseman, G. Scalmani, V. Barone, B. Mennucci, 
 G. A. Petersson, H. Nakatsuji, M. Caricato, X. Li, H. P. Hratchian, 
 A. F. Izmaylov, J. Bloino, G. Zheng, J. L. Sonnenberg, M. Hada, 
 M. Ehara, K. Toyota, R. Fukuda, J. Hasegawa, M. Ishida, T. Nakajima, 
 Y. Honda, O. Kitao, H. Nakai, T. Vreven, J. A. Montgomery, Jr., 
 J. E. Peralta, F. Ogliaro, M. Bearpark, J. J. Heyd, E. Brothers, 
 K. N. Kudin, V. N. Staroverov, T. Keith, R. Kobayashi, J. Normand, 
 K. Raghavachari, A. Rendell, J. C. Burant, S. S. Iyengar, J. Tomasi, 
 M. Cossi, N. Rega, J. M. Millam, M. Klene, J. E. Knox, J. B. Cross, 
 V. Bakken, C. Adamo, J. Jaramillo, R. Gomperts, R. E. Stratmann, 
 O. Yazyev, A. J. Austin, R. Cammi, C. Pomelli, J. W. Ochterski, 
 R. L. Martin, K. Morokuma, V. G. Zakrzewski, G. A. Voth, 
 P. Salvador, J. J. Dannenberg, S. Dapprich, A. D. Daniels, 
 O. Farkas, J. B. Foresman, J. V. Ortiz, J. Cioslowski, 
 and D. J. Fox, Gaussian, Inc., Wallingford CT, 2013.
 
 ******************************************
 Gaussian 09:  ES64L-G09RevE.01 30-Nov-2015
                10-Sep-2019 
 ******************************************
 %mem=20GB
 %NProcShared=10
 Will use up to   10 processors via shared memory.
 -------------------------------------------------------------------
 #P b3lyp/6-31g* # SCF=(xqc) # Freq=() # IOp(7/33=1) # int=ultrafine
 -------------------------------------------------------------------
 1/10=4,30=1,38=1/1,3;
 2/12=2,17=6,18=5,40=1/2;
 3/5=1,6=6,7=1,11=2,16=1,25=1,30=1,71=2,74=-5,75=-5,140=1/1,2,3;
 4//1;
 5/5=2,8=3,13=1,38=5,98=1/2,8;
 8/6=4,10=90,11=11/1;
 11/6=1,8=1,9=11,15=111,16=1/1,2,10;
 10/6=1/2;
 6/7=2,8=2,9=2,10=2,18=1,28=1/1;
 7/8=1,10=1,25=1,33=1/1,2,3,16;
 1/10=4,30=1/3;
 99//99;
 Leave Link    1 at Tue Sep 10 12:26:02 2019, MaxMem=  2684354560 cpu:         0.8
 (Enter /soft/gaussian/09-e.01/g09/l101.exe)
 --------
 comment:
 --------
 Symbolic Z-matrix:
 Charge =  0 Multiplicity = 2
 C                     0.        0.        0. 
 H                     0.        1.08255   0. 
 H                     0.93751  -0.54127   0. 
 H                    -0.93751  -0.54127   0. 
 
 NAtoms=      4 NQM=        4 NQMF=       0 NMMI=      0 NMMIF=      0
                NMic=       0 NMicF=      0.
                    Isotopes and Nuclear Properties:
 (Nuclear quadrupole moments (NQMom) in fm**2, nuclear magnetic moments (NMagM)
  in nuclear magnetons)

  Atom         1           2           3           4
 IAtWgt=          12           1           1           1
 AtmWgt=  12.0000000   1.0078250   1.0078250   1.0078250
 NucSpn=           0           1           1           1
 AtZEff=   0.0000000   0.0000000   0.0000000   0.0000000
 NQMom=    0.0000000   0.0000000   0.0000000   0.0000000
 NMagM=    0.0000000   2.7928460   2.7928460   2.7928460
 AtZNuc=   6.0000000   1.0000000   1.0000000   1.0000000
 Leave Link  101 at Tue Sep 10 12:26:02 2019, MaxMem=  2684354560 cpu:         0.5
 (Enter /soft/gaussian/09-e.01/g09/l103.exe)

 GradGradGradGradGradGradGradGradGradGradGradGradGradGradGradGradGradGrad
 Berny optimization.
 Initialization pass.
 Trust Radius=3.00D-01 FncErr=1.00D-07 GrdErr=1.00D-07
 Number of steps in this run=      2 maximum allowed number of steps=      2.
 GradGradGradGradGradGradGradGradGradGradGradGradGradGradGradGradGradGrad

 Leave Link  103 at Tue Sep 10 12:26:02 2019, MaxMem=  2684354560 cpu:         0.1
 (Enter /soft/gaussian/09-e.01/g09/l202.exe)
                          Input orientation:                          
 ---------------------------------------------------------------------
 Center     Atomic      Atomic             Coordinates (Angstroms)
 Number     Number       Type             X           Y           Z
 ---------------------------------------------------------------------
      1          6           0        0.000000    0.000000    0.000000
      2          1           0        0.000000    1.082548    0.000000
      3          1           0        0.937514   -0.541274    0.000000
      4          1           0       -0.937514   -0.541274    0.000000
 ---------------------------------------------------------------------
                    Distance matrix (angstroms):
                    1          2          3          4
     1  C    0.000000
     2  H    1.082548   0.000000
     3  H    1.082548   1.875028   0.000000
     4  H    1.082548   1.875028   1.875028   0.000000
 Stoichiometry    CH3(2)
 Framework group  D3H[O(C),3C2(H)]
 Deg. of freedom     1
 Full point group                 D3H     NOp  12
 Largest Abelian subgroup         C2V     NOp   4
 Largest concise Abelian subgroup C2      NOp   2
                         Standard orientation:                         
 ---------------------------------------------------------------------
 Center     Atomic      Atomic             Coordinates (Angstroms)
 Number     Number       Type             X           Y           Z
 ---------------------------------------------------------------------
      1          6           0        0.000000    0.000000    0.000000
      2          1           0       -0.000000    1.082548    0.000000
      3          1           0       -0.937514   -0.541274    0.000000
      4          1           0        0.937514   -0.541274    0.000000
 ---------------------------------------------------------------------
 Rotational constants (GHZ):    285.2636730    285.2636730    142.6318365
 Leave Link  202 at Tue Sep 10 12:26:02 2019, MaxMem=  2684354560 cpu:         0.2
 (Enter /soft/gaussian/09-e.01/g09/l301.exe)
 Standard basis: 6-31G(d) (6D, 7F)
 Ernie: Thresh=  0.10000D-02 Tol=  0.10000D-05 Strict=F.
 There are    12 symmetry adapted cartesian basis functions of A1  symmetry.
 There are     1 symmetry adapted cartesian basis functions of A2  symmetry.
 There are     5 symmetry adapted cartesian basis functions of B1  symmetry.
 There are     3 symmetry adapted cartesian basis functions of B2  symmetry.
 There are    12 symmetry adapted basis functions of A1  symmetry.
 There are     1 symmetry adapted basis functions of A2  symmetry.
 There are     5 symmetry adapted basis functions of B1  symmetry.
 There are     3 symmetry adapted basis functions of B2  symmetry.
    21 basis functions,    40 primitive gaussians,    21 cartesian basis functions
     5 alpha electrons        4 beta electrons
       nuclear repulsion energy         9.6455321760 Hartrees.
 IExCor=  402 DFT=T Ex+Corr=B3LYP ExCW=0 ScaHFX=  0.200000
 ScaDFX=  0.800000  0.720000  1.000000  0.810000 ScalE2=  1.000000  1.000000
 IRadAn=      5 IRanWt=     -1 IRanGd=            0 ICorTp=0 IEmpDi=  4
 NAtoms=    4 NActive=    4 NUniq=    2 SFac= 4.00D+00 NAtFMM=   60 NAOKFM=F Big=F
 Integral buffers will be    131072 words long.
 Raffenetti 2 integral format.
 Two-electron integral symmetry is turned on.
 Leave Link  301 at Tue Sep 10 12:26:02 2019, MaxMem=  2684354560 cpu:         0.6
 (Enter /soft/gaussian/09-e.01/g09/l302.exe)
 NPDir=0 NMtPBC=     1 NCelOv=     1 NCel=       1 NClECP=     1 NCelD=      1
         NCelK=      1 NCelE2=     1 NClLst=     1 CellRange=     0.0.
 One-electron integrals computed using PRISM.
 One-electron integral symmetry used in STVInt
 NBasis=    21 RedAO= T EigKep=  4.81D-02  NBF=    12     1     5     3
 NBsUse=    21 1.00D-06 EigRej= -1.00D+00 NBFU=    12     1     5     3
 Precomputing XC quadrature grid using
 IXCGrd= 4 IRadAn=           5 IRanWt=          -1 IRanGd=           0 AccXCQ= 0.00D+00.
 Generated NRdTot=       0 NPtTot=           0 NUsed=           0 NTot=          32
 NSgBfM=    21    21    21    21    21 MxSgAt=     4 MxSgA2=     4.
 Leave Link  302 at Tue Sep 10 12:26:02 2019, MaxMem=  2684354560 cpu:         1.5
 (Enter /soft/gaussian/09-e.01/g09/l303.exe)
 DipDrv:  MaxL=1.
 Leave Link  303 at Tue Sep 10 12:26:02 2019, MaxMem=  2684354560 cpu:         0.2
 (Enter /soft/gaussian/09-e.01/g09/l401.exe)
 ExpMin= 1.61D-01 ExpMax= 3.05D+03 ExpMxC= 4.57D+02 IAcc=3 IRadAn=         5 AccDes= 0.00D+00
 Harris functional with IExCor=  402 and IRadAn=       5 diagonalized for initial guess.
 HarFok:  IExCor=  402 AccDes= 0.00D+00 IRadAn=         5 IDoV= 1 UseB2=F ITyADJ=14
 ICtDFT=  3500011 ScaDFX=  1.000000  1.000000  1.000000  1.000000
 FoFCou: FMM=F IPFlag=           0 FMFlag=      100000 FMFlg1=           0
         NFxFlg=           0 DoJE=T BraDBF=F KetDBF=T FulRan=T
         wScrn=  0.000000 ICntrl=     500 IOpCl=  0 I1Cent=   200000004 NGrid=           0
         NMat0=    1 NMatS0=      1 NMatT0=    0 NMatD0=    1 NMtDS0=    0 NMtDT0=    0
 Petite list used in FoFCou.
 Harris En= -39.8317639195062    
 JPrj=0 DoOrth=F DoCkMO=F.
 Initial guess orbital symmetries:
 Alpha Orbitals:
       Occupied  (A1') (A1') (E') (E') (A2")
       Virtual   (A1') (E') (E') (E') (E') (A2") (A1') (E') (E')
                 (A1') (E") (E") (A1') (E') (E') (A1')
 Beta  Orbitals:
       Occupied  (A1') (A1') (E') (E')
       Virtual   (A2") (A1') (E') (E') (E') (E') (A2") (A1') (E')
                 (E') (A1') (E") (E") (A1') (E') (E') (A1')
 The electronic state of the initial guess is 2-A2".
 Initial guess <Sx>= 0.0000 <Sy>= 0.0000 <Sz>= 0.5000 <S**2>= 0.7500 S= 0.5000
 Leave Link  401 at Tue Sep 10 12:26:02 2019, MaxMem=  2684354560 cpu:         1.6
 (Enter /soft/gaussian/09-e.01/g09/l502.exe)
 UHF open shell SCF:
 Using DIIS extrapolation, IDIIS=  1040.
 Integral symmetry usage will be decided dynamically.
 Keep R1 and R2 ints in memory in symmetry-blocked form, NReq=897568.
 IVT=        7783 IEndB=        7783 NGot=  2684354560 MDV=  2684329035
 LenX=  2684329035 LenY=  2684328153
 Requested convergence on RMS density matrix=1.00D-08 within  64 cycles.
 Requested convergence on MAX density matrix=1.00D-06.
 Requested convergence on             energy=1.00D-06.
 No special actions if energy rises.
 FoFCou: FMM=F IPFlag=           0 FMFlag=           0 FMFlg1=           0
         NFxFlg=           0 DoJE=F BraDBF=F KetDBF=F FulRan=T
         wScrn=  0.000000 ICntrl=     600 IOpCl=  0 I1Cent=           0 NGrid=           0
         NMat0=    1 NMatS0=    231 NMatT0=    0 NMatD0=    1 NMtDS0=    0 NMtDT0=    0
 Petite list used in FoFCou.
 Integral accuracy reduced to 1.0D-05 until final iterations.

 Cycle   1  Pass 0  IDiag  1:
 E= -39.7938840563545    
 DIIS: error= 5.40D-02 at cycle   1 NSaved=   1.
 NSaved= 1 IEnMin= 1 EnMin= -39.7938840563545     IErMin= 1 ErrMin= 5.40D-02
 ErrMax= 5.40D-02  0.00D+00 EMaxC= 1.00D-01 BMatC= 1.51D-01 BMatP= 1.51D-01
 IDIUse=3 WtCom= 4.60D-01 WtEn= 5.40D-01
 Coeff-Com:  0.100D+01
 Coeff-En:   0.100D+01
 Coeff:      0.100D+01
 Gap=     0.277 Goal=   None    Shift=    0.000
 Gap=     0.382 Goal=   None    Shift=    0.000
 GapD=    0.277 DampG=1.000 DampE=0.500 DampFc=0.5000 IDamp=-1.
 Damping current iteration by 5.00D-01
 RMSDP=1.66D-02 MaxDP=1.53D-01              OVMax= 1.41D-01

 Cycle   2  Pass 0  IDiag  1:
 E= -39.8161032172047     Delta-E=       -0.022219160850 Rises=F Damp=T
 DIIS: error= 1.09D-02 at cycle   2 NSaved=   2.
 NSaved= 2 IEnMin= 2 EnMin= -39.8161032172047     IErMin= 2 ErrMin= 1.09D-02
 ErrMax= 1.09D-02  0.00D+00 EMaxC= 1.00D-01 BMatC= 5.25D-03 BMatP= 1.51D-01
 IDIUse=3 WtCom= 8.91D-01 WtEn= 1.09D-01
 Coeff-Com: -0.978D-02 0.101D+01
 Coeff-En:   0.000D+00 0.100D+01
 Coeff:     -0.871D-02 0.101D+01
 Gap=     0.334 Goal=   None    Shift=    0.000
 Gap=     0.356 Goal=   None    Shift=    0.000
 RMSDP=1.90D-03 MaxDP=1.42D-02 DE=-2.22D-02 OVMax= 6.57D-02

 Cycle   3  Pass 0  IDiag  1:
 E= -39.8382393377443     Delta-E=       -0.022136120540 Rises=F Damp=F
 DIIS: error= 1.38D-03 at cycle   3 NSaved=   3.
 NSaved= 3 IEnMin= 3 EnMin= -39.8382393377443     IErMin= 3 ErrMin= 1.38D-03
 ErrMax= 1.38D-03  0.00D+00 EMaxC= 1.00D-01 BMatC= 8.05D-05 BMatP= 5.25D-03
 IDIUse=3 WtCom= 9.86D-01 WtEn= 1.38D-02
 Coeff-Com: -0.618D-02 0.415D-02 0.100D+01
 Coeff-En:   0.000D+00 0.000D+00 0.100D+01
 Coeff:     -0.610D-02 0.409D-02 0.100D+01
 Gap=     0.338 Goal=   None    Shift=    0.000
 Gap=     0.358 Goal=   None    Shift=    0.000
 RMSDP=3.21D-04 MaxDP=2.67D-03 DE=-2.21D-02 OVMax= 3.18D-03

 Cycle   4  Pass 0  IDiag  1:
 E= -39.8382855804086     Delta-E=       -0.000046242664 Rises=F Damp=F
 DIIS: error= 3.64D-04 at cycle   4 NSaved=   4.
 NSaved= 4 IEnMin= 4 EnMin= -39.8382855804086     IErMin= 4 ErrMin= 3.64D-04
 ErrMax= 3.64D-04  0.00D+00 EMaxC= 1.00D-01 BMatC= 8.19D-06 BMatP= 8.05D-05
 IDIUse=3 WtCom= 9.96D-01 WtEn= 3.64D-03
 Coeff-Com:  0.680D-04-0.111D-01-0.305D+00 0.132D+01
 Coeff-En:   0.000D+00 0.000D+00 0.000D+00 0.100D+01
 Coeff:      0.677D-04-0.111D-01-0.304D+00 0.132D+01
 Gap=     0.339 Goal=   None    Shift=    0.000
 Gap=     0.359 Goal=   None    Shift=    0.000
 RMSDP=1.50D-04 MaxDP=1.06D-03 DE=-4.62D-05 OVMax= 1.37D-03

 Cycle   5  Pass 0  IDiag  1:
 E= -39.8382919191312     Delta-E=       -0.000006338723 Rises=F Damp=F
 DIIS: error= 6.31D-05 at cycle   5 NSaved=   5.
 NSaved= 5 IEnMin= 5 EnMin= -39.8382919191312     IErMin= 5 ErrMin= 6.31D-05
 ErrMax= 6.31D-05  0.00D+00 EMaxC= 1.00D-01 BMatC= 2.62D-07 BMatP= 8.19D-06
 IDIUse=1 WtCom= 1.00D+00 WtEn= 0.00D+00
 Coeff-Com:  0.368D-03 0.266D-02 0.112D-01-0.246D+00 0.123D+01
 Coeff:      0.368D-03 0.266D-02 0.112D-01-0.246D+00 0.123D+01
 Gap=     0.339 Goal=   None    Shift=    0.000
 Gap=     0.359 Goal=   None    Shift=    0.000
 RMSDP=3.08D-05 MaxDP=2.13D-04 DE=-6.34D-06 OVMax= 2.77D-04

 Cycle   6  Pass 0  IDiag  1:
 E= -39.8382921248275     Delta-E=       -0.000000205696 Rises=F Damp=F
 DIIS: error= 6.05D-06 at cycle   6 NSaved=   6.
 NSaved= 6 IEnMin= 6 EnMin= -39.8382921248275     IErMin= 6 ErrMin= 6.05D-06
 ErrMax= 6.05D-06  0.00D+00 EMaxC= 1.00D-01 BMatC= 1.55D-09 BMatP= 2.62D-07
 IDIUse=1 WtCom= 1.00D+00 WtEn= 0.00D+00
 Coeff-Com: -0.817D-05-0.130D-03 0.482D-02-0.216D-02-0.104D+00 0.110D+01
 Coeff:     -0.817D-05-0.130D-03 0.482D-02-0.216D-02-0.104D+00 0.110D+01
 Gap=     0.339 Goal=   None    Shift=    0.000
 Gap=     0.359 Goal=   None    Shift=    0.000
 RMSDP=2.35D-06 MaxDP=1.78D-05 DE=-2.06D-07 OVMax= 2.23D-05

 Initial convergence to 1.0D-05 achieved.  Increase integral accuracy.
 Cycle   7  Pass 1  IDiag  1:
 E= -39.8382918306440     Delta-E=        0.000000294183 Rises=F Damp=F
 DIIS: error= 1.11D-06 at cycle   1 NSaved=   1.
 NSaved= 1 IEnMin= 1 EnMin= -39.8382918306440     IErMin= 1 ErrMin= 1.11D-06
 ErrMax= 1.11D-06  0.00D+00 EMaxC= 1.00D-01 BMatC= 2.77D-11 BMatP= 2.77D-11
 IDIUse=1 WtCom= 1.00D+00 WtEn= 0.00D+00
 Coeff-Com:  0.100D+01
 Coeff:      0.100D+01
 Gap=     0.339 Goal=   None    Shift=    0.000
 Gap=     0.359 Goal=   None    Shift=    0.000
 RMSDP=2.35D-06 MaxDP=1.78D-05 DE= 2.94D-07 OVMax= 1.43D-06

 Cycle   8  Pass 1  IDiag  1:
 E= -39.8382918306521     Delta-E=       -0.000000000008 Rises=F Damp=F
 DIIS: error= 2.38D-07 at cycle   2 NSaved=   2.
 NSaved= 2 IEnMin= 2 EnMin= -39.8382918306521     IErMin= 2 ErrMin= 2.38D-07
 ErrMax= 2.38D-07  0.00D+00 EMaxC= 1.00D-01 BMatC= 2.01D-12 BMatP= 2.77D-11
 IDIUse=1 WtCom= 1.00D+00 WtEn= 0.00D+00
 Coeff-Com:  0.282D-01 0.972D+00
 Coeff:      0.282D-01 0.972D+00
 Gap=     0.339 Goal=   None    Shift=    0.000
 Gap=     0.359 Goal=   None    Shift=    0.000
 RMSDP=6.47D-08 MaxDP=7.62D-07 DE=-8.08D-12 OVMax= 6.58D-07

 Cycle   9  Pass 1  IDiag  1:
 E= -39.8382918306526     Delta-E=       -0.000000000000 Rises=F Damp=F
 DIIS: error= 1.81D-07 at cycle   3 NSaved=   3.
 NSaved= 3 IEnMin= 3 EnMin= -39.8382918306526     IErMin= 3 ErrMin= 1.81D-07
 ErrMax= 1.81D-07  0.00D+00 EMaxC= 1.00D-01 BMatC= 1.36D-12 BMatP= 2.01D-12
 IDIUse=1 WtCom= 1.00D+00 WtEn= 0.00D+00
 Coeff-Com: -0.688D-01 0.457D+00 0.612D+00
 Coeff:     -0.688D-01 0.457D+00 0.612D+00
 Gap=     0.339 Goal=   None    Shift=    0.000
 Gap=     0.359 Goal=   None    Shift=    0.000
 RMSDP=2.59D-08 MaxDP=2.49D-07 DE=-4.97D-13 OVMax= 2.87D-07

 Cycle  10  Pass 1  IDiag  1:
 E= -39.8382918306530     Delta-E=       -0.000000000000 Rises=F Damp=F
 DIIS: error= 2.24D-08 at cycle   4 NSaved=   4.
 NSaved= 4 IEnMin= 4 EnMin= -39.8382918306530     IErMin= 4 ErrMin= 2.24D-08
 ErrMax= 2.24D-08  0.00D+00 EMaxC= 1.00D-01 BMatC= 2.15D-14 BMatP= 1.36D-12
 IDIUse=1 WtCom= 1.00D+00 WtEn= 0.00D+00
 Coeff-Com:  0.153D-01-0.193D+00-0.150D+00 0.133D+01
 Coeff:      0.153D-01-0.193D+00-0.150D+00 0.133D+01
 Gap=     0.339 Goal=   None    Shift=    0.000
 Gap=     0.359 Goal=   None    Shift=    0.000
 RMSDP=8.79D-09 MaxDP=6.01D-08 DE=-3.69D-13 OVMax= 8.05D-08

 SCF Done:  E(UB3LYP) =  -39.8382918307     A.U. after   10 cycles
            NFock= 10  Conv=0.88D-08     -V/T= 2.0101
 <Sx>= 0.0000 <Sy>= 0.0000 <Sz>= 0.5000 <S**2>= 0.7538 S= 0.5019
 <L.S>= 0.000000000000E+00
 KE= 3.943896033315D+01 PE=-1.110614631706D+02 EE= 2.213867883074D+01
 Annihilation of the first spin contaminant:
 S**2 before annihilation     0.7538,   after     0.7500
 Leave Link  502 at Tue Sep 10 12:26:02 2019, MaxMem=  2684354560 cpu:         2.1
 (Enter /soft/gaussian/09-e.01/g09/l508.exe)
 QCSCF skips out because SCF is already converged.
 Leave Link  508 at Tue Sep 10 12:26:02 2019, MaxMem=  2684354560 cpu:         0.0
 (Enter /soft/gaussian/09-e.01/g09/l801.exe)
 DoSCS=F DFT=T ScalE2(SS,OS)=  1.000000  1.000000
 Range of M.O.s used for correlation:     1    21
 NBasis=    21 NAE=     5 NBE=     4 NFC=     0 NFV=     0
 NROrb=     21 NOA=     5 NOB=     4 NVA=    16 NVB=    17
 Leave Link  801 at Tue Sep 10 12:26:02 2019, MaxMem=  2684354560 cpu:         0.2
 (Enter /soft/gaussian/09-e.01/g09/l1101.exe)
 Using compressed storage, NAtomX=     4.
 Will process      5 centers per pass.
 Leave Link 1101 at Tue Sep 10 12:26:03 2019, MaxMem=  2684354560 cpu:         1.3
 (Enter /soft/gaussian/09-e.01/g09/l1102.exe)
 Symmetrizing basis deriv contribution to polar:
 IMax=3 JMax=2 DiffMx= 0.00D+00
 Leave Link 1102 at Tue Sep 10 12:26:03 2019, MaxMem=  2684354560 cpu:         0.2
 (Enter /soft/gaussian/09-e.01/g09/l1110.exe)
 Forming Gx(P) for the SCF density, NAtomX=     4.
 Integral derivatives from FoFJK, PRISM(SPDF).
 Do as many integral derivatives as possible in FoFJK.
 G2DrvN: MDV=    2684354424.
 G2DrvN: will do     5 centers at a time, making    1 passes.
 Calling FoFCou, ICntrl=  3107 FMM=F I1Cent=   0 AccDes= 0.00D+00.
 FoFJK:  IHMeth= 1 ICntrl=    3107 DoSepK=F KAlg= 0 I1Cent=   0 FoldK=F
 IRaf=         0 NMat=   1 IRICut=       1 DoRegI=T DoRafI=F ISym2E= 1.
 FoFCou: FMM=F IPFlag=           0 FMFlag=      100000 FMFlg1=           0
         NFxFlg=           0 DoJE=F BraDBF=F KetDBF=F FulRan=T
         wScrn=  0.000000 ICntrl=    3107 IOpCl=  1 I1Cent=           0 NGrid=           0
         NMat0=    1 NMatS0=      1 NMatT0=    0 NMatD0=    1 NMtDS0=    0 NMtDT0=    0
 Petite list used in FoFCou.
 End of G2Drv F.D. properties file   721 does not exist.
 End of G2Drv F.D. properties file   722 does not exist.
 End of G2Drv F.D. properties file   788 does not exist.
 Leave Link 1110 at Tue Sep 10 12:26:03 2019, MaxMem=  2684354560 cpu:         2.1
 (Enter /soft/gaussian/09-e.01/g09/l1002.exe)
 Minotr:  UHF open shell wavefunction.
          IDoAtm=1111
          Direct CPHF calculation.
          Differentiating once with respect to electric field.
                with respect to dipole field.
          Differentiating once with respect to nuclear coordinates.
          Using symmetry in CPHF.
          Requested convergence is 1.0D-08 RMS, and 1.0D-07 maximum.
          Secondary convergence is 1.0D-12 RMS, and 1.0D-12 maximum.
          NewPWx=T KeepS1=F KeepF1=F KeepIn=T MapXYZ=F SortEE=F KeepMc=T.
          MDV=    2684354474 using IRadAn=       1.
 Generate precomputed XC quadrature information.
 Keep R1 and R2 ints in memory in symmetry-blocked form, NReq=888279.
 FoFCou: FMM=F IPFlag=           0 FMFlag=           0 FMFlg1=           0
         NFxFlg=           0 DoJE=F BraDBF=F KetDBF=F FulRan=T
         wScrn=  0.000000 ICntrl=     600 IOpCl=  0 I1Cent=           0 NGrid=           0
         NMat0=    1 NMatS0=    231 NMatT0=    0 NMatD0=    1 NMtDS0=    0 NMtDT0=    0
 Petite list used in FoFCou.
          Solving linear equations simultaneously, MaxMat=       0.
          There are     9 degrees of freedom in the 1st order CPHF.  IDoFFX=4 NUNeed=     9.
      9 vectors produced by pass  0 Test12= 1.64D-15 1.11D-08 XBig12= 1.11D+01 1.53D+00.
 AX will form     9 AO Fock derivatives at one time.
      9 vectors produced by pass  1 Test12= 1.64D-15 1.11D-08 XBig12= 2.15D-01 3.26D-01.
      9 vectors produced by pass  2 Test12= 1.64D-15 1.11D-08 XBig12= 5.97D-04 1.94D-02.
      9 vectors produced by pass  3 Test12= 1.64D-15 1.11D-08 XBig12= 1.35D-06 5.50D-04.
      9 vectors produced by pass  4 Test12= 1.64D-15 1.11D-08 XBig12= 2.65D-08 7.32D-05.
      7 vectors produced by pass  5 Test12= 1.64D-15 1.11D-08 XBig12= 7.36D-11 4.86D-06.
      2 vectors produced by pass  6 Test12= 1.64D-15 1.11D-08 XBig12= 1.79D-13 1.57D-07.
 InvSVY:  IOpt=1 It=  1 EMax= 1.39D-16
 Solved reduced A of dimension    54 with     9 vectors.
 FullF1:  Do perturbations    1 to     9.
 Isotropic polarizability for W=    0.000000        9.60 Bohr**3.
 End of Minotr F.D. properties file   721 does not exist.
 End of Minotr F.D. properties file   722 does not exist.
 End of Minotr F.D. properties file   788 does not exist.
 Leave Link 1002 at Tue Sep 10 12:26:03 2019, MaxMem=  2684354560 cpu:         3.4
 (Enter /soft/gaussian/09-e.01/g09/l601.exe)
 Copying SCF densities to generalized density rwf, IOpCl= 1 IROHF=0.

 **********************************************************************

            Population analysis using the SCF density.

 **********************************************************************

 Orbital symmetries:
 Alpha Orbitals:
       Occupied  (A1') (A1') (E') (E') (A2")
       Virtual   (A1') (E') (E') (A2") (E') (E') (A1') (E') (E')
                 (A1') (E") (E") (A1') (E') (E') (A1')
 Beta  Orbitals:
       Occupied  (A1') (A1') (E') (E')
       Virtual   (A2") (A1') (E') (E') (E') (E') (A2") (A1') (E')
                 (E') (A1') (E") (E") (A1') (E') (E') (A1')
 The electronic state is 2-A2".
 Alpha  occ. eigenvalues --  -10.19150  -0.68127  -0.41646  -0.41646  -0.22427
 Alpha virt. eigenvalues --    0.11467   0.18209   0.18209   0.53685   0.54490
 Alpha virt. eigenvalues --    0.54490   0.68303   0.91452   0.91452   0.95819
 Alpha virt. eigenvalues --    1.65009   1.65009   2.01083   2.18697   2.18697
 Alpha virt. eigenvalues --    4.06666
  Beta  occ. eigenvalues --  -10.17739  -0.64059  -0.40682  -0.40682
  Beta virt. eigenvalues --   -0.04795   0.13079   0.18760   0.18760   0.55305
  Beta virt. eigenvalues --    0.55305   0.61533   0.70966   0.91940   0.91940
  Beta virt. eigenvalues --    0.98701   1.72169   1.72169   2.09725   2.19824
  Beta virt. eigenvalues --    2.19824   4.10451
          Condensed to atoms (all electrons):
               1          2          3          4
     1  C    5.344649   0.380990   0.380990   0.380990
     2  H    0.380990   0.515996  -0.029763  -0.029763
     3  H    0.380990  -0.029763   0.515996  -0.029763
     4  H    0.380990  -0.029763  -0.029763   0.515996
          Atomic-Atomic Spin Densities.
               1          2          3          4
     1  C    1.182372  -0.008873  -0.008873  -0.008873
     2  H   -0.008873  -0.044882   0.000919   0.000919
     3  H   -0.008873   0.000919  -0.044882   0.000919
     4  H   -0.008873   0.000919   0.000919  -0.044882
 Mulliken charges and spin densities:
               1          2
     1  C   -0.487620   1.155752
     2  H    0.162540  -0.051917
     3  H    0.162540  -0.051917
     4  H    0.162540  -0.051917
 Sum of Mulliken charges =   0.00000   1.00000
 Mulliken charges and spin densities with hydrogens summed into heavy atoms:
               1          2
     1  C    0.000000   1.000000
 APT charges:
               1
     1  C   -0.125027
     2  H    0.041676
     3  H    0.041676
     4  H    0.041676
 Sum of APT charges =   0.00000
 APT charges with hydrogens summed into heavy atoms:
               1
     1  C    0.000001
 Electronic spatial extent (au):  <R**2>=             29.3955
 Charge=              0.0000 electrons
 Dipole moment (field-independent basis, Debye):
    X=              0.0000    Y=              0.0000    Z=              0.0000  Tot=              0.0000
 Quadrupole moment (field-independent basis, Debye-Ang):
   XX=             -7.0056   YY=             -7.0056   ZZ=             -8.6400
   XY=             -0.0000   XZ=             -0.0000   YZ=             -0.0000
 Traceless Quadrupole moment (field-independent basis, Debye-Ang):
   XX=              0.5448   YY=              0.5448   ZZ=             -1.0896
   XY=             -0.0000   XZ=             -0.0000   YZ=             -0.0000
 Octapole moment (field-independent basis, Debye-Ang**2):
  XXX=             -0.0000  YYY=              0.7988  ZZZ=             -0.0000  XYY=              0.0000
  XXY=             -0.7988  XXZ=             -0.0000  XZZ=              0.0000  YZZ=             -0.0000
  YYZ=             -0.0000  XYZ=              0.0000
 Hexadecapole moment (field-independent basis, Debye-Ang**3):
 XXXX=            -13.9278 YYYY=            -13.9278 ZZZZ=             -8.9736 XXXY=              0.0000
 XXXZ=             -0.0000 YYYX=              0.0000 YYYZ=              0.0000 ZZZX=             -0.0000
 ZZZY=             -0.0000 XXYY=             -4.6426 XXZZ=             -4.1489 YYZZ=             -4.1489
 XXYZ=             -0.0000 YYXZ=             -0.0000 ZZXY=              0.0000
 N-N= 9.645532176038D+00 E-N=-1.110614630331D+02  KE= 3.943896033315D+01
 Symmetry A1   KE= 3.633633530189D+01
 Symmetry A2   KE= 4.576212810332D-34
 Symmetry B1   KE= 1.958906191825D+00
 Symmetry B2   KE= 1.143718839437D+00
  Exact polarizability:  11.869  -0.000  11.869   0.000  -0.000   5.052
 Approx polarizability:  13.787  -0.000  13.787   0.000   0.000   5.875
                          Isotropic Fermi Contact Couplings
        Atom                 a.u.       MegaHertz       Gauss      10(-4) cm-1
     1  C(13)              0.11045     124.16265      44.30432      41.41620
     2  H(1)              -0.01588     -70.97033     -25.32398     -23.67315
     3  H(1)              -0.01588     -70.97033     -25.32398     -23.67315
     4  H(1)              -0.01588     -70.97033     -25.32398     -23.67315
 --------------------------------------------------------
       Center         ----  Spin Dipole Couplings  ----
                      3XX-RR        3YY-RR        3ZZ-RR
 --------------------------------------------------------
     1   Atom       -0.547584     -0.547584      1.095169
     2   Atom       -0.073196      0.078749     -0.005553
     3   Atom        0.040763     -0.035210     -0.005553
     4   Atom        0.040763     -0.035210     -0.005553
 --------------------------------------------------------
                        XY            XZ            YZ
 --------------------------------------------------------
     1   Atom       -0.000000      0.000000      0.000000
     2   Atom       -0.000000     -0.000000     -0.000000
     3   Atom        0.065794      0.000000      0.000000
     4   Atom       -0.065794     -0.000000      0.000000
 --------------------------------------------------------


 ---------------------------------------------------------------------------------
              Anisotropic Spin Dipole Couplings in Principal Axis System
 ---------------------------------------------------------------------------------

       Atom             a.u.   MegaHertz   Gauss  10(-4) cm-1        Axes

              Baa    -0.5476   -73.481   -26.220   -24.510  0.2940  0.9558 -0.0000
     1 C(13)  Bbb    -0.5476   -73.481   -26.220   -24.510  0.9558 -0.2940  0.0000
              Bcc     1.0952   146.961    52.439    49.021  0.0000  0.0000  1.0000
 
              Baa    -0.0732   -39.054   -13.935   -13.027  1.0000  0.0000 -0.0000
     2 H(1)   Bbb    -0.0056    -2.963    -1.057    -0.988  0.0000  0.0000  1.0000
              Bcc     0.0787    42.017    14.993    14.015 -0.0000  1.0000 -0.0000
 
              Baa    -0.0732   -39.054   -13.935   -13.027 -0.5000  0.8660 -0.0000
     3 H(1)   Bbb    -0.0056    -2.963    -1.057    -0.988  0.0000  0.0000  1.0000
              Bcc     0.0787    42.017    14.993    14.015  0.8660  0.5000 -0.0000
 
              Baa    -0.0732   -39.054   -13.935   -13.027  0.5000  0.8660  0.0000
     4 H(1)   Bbb    -0.0056    -2.963    -1.057    -0.988  0.0000  0.0000  1.0000
              Bcc     0.0787    42.017    14.993    14.015  0.8660 -0.5000  0.0000
 

 ---------------------------------------------------------------------------------

 No NMR shielding tensors so no spin-rotation constants.
 Leave Link  601 at Tue Sep 10 12:26:04 2019, MaxMem=  2684354560 cpu:         2.7
 (Enter /soft/gaussian/09-e.01/g09/l701.exe)
 Compute integral second derivatives.
 ... and contract with generalized density number  0.
 Entering OneElI...
 Calculate overlap and kinetic energy integrals
    NBasis =  21  MinDer = 2  MaxDer = 2
 Requested accuracy = 0.1000D-12
 PrsmSu:  NPrtUS=  10 ThrOK=T IAlg=1 NPAlg=1 LenDen=           0.
 Prism:   IPart=     0 DynPar=F LinDyn=F Incr=           1.
 PRISM was handed   268431574 working-precision words and    55 shell-pairs
 PRISM was handed   268431574 working-precision words and    55 shell-pairs
 PRISM was handed   268431574 working-precision words and    55 shell-pairs
 PRISM was handed   268431574 working-precision words and    55 shell-pairs
 PRISM was handed   268431574 working-precision words and    55 shell-pairs
 PRISM was handed   268431574 working-precision words and    55 shell-pairs
 PRISM was handed   268431574 working-precision words and    55 shell-pairs
 PRISM was handed   268431574 working-precision words and    55 shell-pairs
 PRISM was handed   268431574 working-precision words and    55 shell-pairs
 PRISM was handed   268431574 working-precision words and    55 shell-pairs
 IPart=  9 NShTot=           0 NBatch=           0 AvBLen=         0.0
 IPart=  5 NShTot=           3 NBatch=           3 AvBLen=         1.0
 IPart=  7 NShTot=           1 NBatch=           1 AvBLen=         1.0
 IPart=  1 NShTot=          11 NBatch=          11 AvBLen=         1.0
 IPart=  3 NShTot=           3 NBatch=           3 AvBLen=         1.0
 IPart=  8 NShTot=           1 NBatch=           1 AvBLen=         1.0
 IPart=  2 NShTot=          11 NBatch=          11 AvBLen=         1.0
 IPart=  4 NShTot=           3 NBatch=           3 AvBLen=         1.0
 IPart=  6 NShTot=           1 NBatch=           1 AvBLen=         1.0
 IPart=  0 NShTot=          21 NBatch=          21 AvBLen=         1.0
 PrSmSu:  NxtVal=             11.
 Entering OneElI...
 Calculate potential energy integrals
    NBasis =  21  MinDer = 2  MaxDer = 2
 Requested accuracy = 0.1000D-12
 PrsmSu:  NPrtUS=  10 ThrOK=T IAlg=1 NPAlg=1 LenDen=           0.
 Prism:   IPart=     0 DynPar=F LinDyn=F Incr=           1.
 PRISM was handed   268431678 working-precision words and    55 shell-pairs
 PRISM was handed   268431678 working-precision words and    55 shell-pairs
 PRISM was handed   268431678 working-precision words and    55 shell-pairs
 PRISM was handed   268431678 working-precision words and    55 shell-pairs
 PRISM was handed   268431678 working-precision words and    55 shell-pairs
 PRISM was handed   268431678 working-precision words and    55 shell-pairs
 PRISM was handed   268431678 working-precision words and    55 shell-pairs
 PRISM was handed   268431678 working-precision words and    55 shell-pairs
 PRISM was handed   268431678 working-precision words and    55 shell-pairs
 PRISM was handed   268431678 working-precision words and    55 shell-pairs
 IPart=  8 NShTot=           4 NBatch=           1 AvBLen=         4.0
 IPart=  7 NShTot=           4 NBatch=           1 AvBLen=         4.0
 IPart=  9 NShTot=           0 NBatch=           0 AvBLen=         0.0
 IPart=  3 NShTot=          12 NBatch=           3 AvBLen=         4.0
 IPart=  5 NShTot=          12 NBatch=           3 AvBLen=         4.0
 IPart=  1 NShTot=          44 NBatch=          11 AvBLen=         4.0
 IPart=  6 NShTot=           4 NBatch=           1 AvBLen=         4.0
 IPart=  4 NShTot=          12 NBatch=           3 AvBLen=         4.0
 IPart=  2 NShTot=          44 NBatch=          11 AvBLen=         4.0
 IPart=  0 NShTot=          84 NBatch=          21 AvBLen=         4.0
 PrSmSu:  NxtVal=             11.
 Polarizability after L701:
                1             2             3 
      1  0.118689D+02
      2  0.000000D+00  0.118688D+02
      3  0.000000D+00  0.000000D+00  0.505208D+01
 Dipole Derivatives after L701:
                 1             2             3             4             5 
      1   0.481627D-01  0.000000D+00  0.000000D+00  0.392587D-01  0.000000D+00
      2   0.000000D+00  0.481502D-01  0.000000D+00  0.000000D+00 -0.713564D-01
      3   0.000000D+00  0.000000D+00 -0.471393D+00  0.000000D+00  0.000000D+00
                 6             7             8             9            10 
      1   0.000000D+00 -0.437067D-01 -0.478985D-01  0.000000D+00 -0.437067D-01
      2   0.000000D+00 -0.478984D-01  0.116040D-01  0.000000D+00  0.478984D-01
      3   0.157127D+00  0.000000D+00  0.000000D+00  0.157130D+00  0.000000D+00
                11            12 
      1   0.478985D-01  0.000000D+00
      2   0.116040D-01  0.000000D+00
      3   0.000000D+00  0.157130D+00
 Hessian after L701:
                1             2             3             4             5 
      1  0.259492D+01
      2  0.000000D+00  0.259493D+01
      3  0.000000D+00  0.000000D+00  0.464627D+01
      4 -0.162386D+01  0.000000D+00  0.000000D+00  0.158928D+01
      5  0.000000D+00 -0.106088D+00  0.000000D+00  0.000000D+00  0.158142D+00
      6  0.000000D+00  0.000000D+00 -0.154876D+01  0.000000D+00  0.000000D+00
      7 -0.485531D+00  0.657216D+00  0.000000D+00  0.172907D-01 -0.230958D-01
      8  0.657216D+00 -0.124442D+01  0.000000D+00 -0.519327D-01 -0.260271D-01
      9  0.000000D+00  0.000000D+00 -0.154876D+01  0.000000D+00  0.000000D+00
     10 -0.485531D+00 -0.657216D+00  0.000000D+00  0.172907D-01  0.230958D-01
     11 -0.657216D+00 -0.124442D+01  0.000000D+00  0.519327D-01 -0.260271D-01
     12  0.000000D+00  0.000000D+00 -0.154876D+01  0.000000D+00  0.000000D+00
                6             7             8             9            10 
      6  0.149852D+01
      7  0.000000D+00  0.515927D+00
      8  0.000000D+00 -0.619701D+00  0.123150D+01
      9  0.251181D-01  0.000000D+00  0.000000D+00  0.149852D+01
     10  0.000000D+00 -0.476859D-01  0.144185D-01  0.000000D+00  0.515927D+00
     11  0.000000D+00 -0.144185D-01  0.389495D-01  0.000000D+00  0.619701D+00
     12  0.251181D-01  0.000000D+00  0.000000D+00  0.251181D-01  0.000000D+00
               11            12 
     11  0.123150D+01
     12  0.000000D+00  0.149852D+01
 Leave Link  701 at Tue Sep 10 12:26:04 2019, MaxMem=  2684354560 cpu:         1.9
 (Enter /soft/gaussian/09-e.01/g09/l702.exe)
 L702 exits ... SP integral derivatives will be done elsewhere.
 Leave Link  702 at Tue Sep 10 12:26:04 2019, MaxMem=  2684354560 cpu:         0.2
 (Enter /soft/gaussian/09-e.01/g09/l703.exe)
 Compute integral second derivatives, UseDBF=F ICtDFT=           0.
 Integral derivatives from FoFJK, PRISM(SPDF).
 ICntrl=    100127.
 Calling FoFJK, ICntrl=    100127 FMM=F ISym2X=1 I1Cent= 0 IOpClX= 1 NMat=1 NMatS=1 NMatT=0.
 FoFJK:  IHMeth= 1 ICntrl=  100127 DoSepK=F KAlg= 0 I1Cent=   0 FoldK=F
 IRaf=         0 NMat=   1 IRICut=       1 DoRegI=T DoRafI=F ISym2E= 1.
 FoFCou: FMM=F IPFlag=           0 FMFlag=      100000 FMFlg1=         800
         NFxFlg=           0 DoJE=F BraDBF=F KetDBF=F FulRan=T
         wScrn=  0.000000 ICntrl=  100127 IOpCl=  1 I1Cent=           0 NGrid=           0
         NMat0=    1 NMatS0=      1 NMatT0=    0 NMatD0=    1 NMtDS0=    0 NMtDT0=    0
 Petite list used in FoFCou.
 FoFCou:  KetSym=F NOpSet= 12 NOpAb=4 NOp= 12.
 FoFCou:  CnvScl= 1.00D+00 Thresh= 1.00D-10 IAcrcy=      10.
 PrismS was handed  2684343998 working-precision words and    55 shell-pairs
 FoFCou: LinMIO=F DoNuc=F BraDBF=F KetDBF=F HaveP=T PDBF=F HaveZ=T HaveW=F
         NIJTC =       6 NIJTAt=       0 NIJTCD=       0 NIJTT =       6
         IJTBeg=       1 IJTEnd=       6 KLTBeg=       1 KLTEnd=       6
         IPTBeg=       1 IPTEnd=       6 IPTBCv=       1 IPTECv=       6
         IZTBeg=       1 IZTEnd=       6 IZTBCv=       1 IZTECv=       6
         IWTBeg=       7 IWTEnd=       6 IWTBCv=       7 IWTECv=       6
         INTBeg=       1 INTEnd=       0 IFTBCv=       1 IFTECv=       6
 NCel replicated for PrismC:     1
 CoulSu:  IncDef=  1024 NBBP=           1540 NTPThr=   100 NPartT=   10 Incr=           1 LDynOK=F.
 CoulSu:  NPrtUS=  10 ThrOK=T IAlg=1 NPAlg=1 LenDen=           0 LWGrdD=           0 DoCopy=F.
 Enter PrismC: JobTyp=22 DoJE=F Cont=F.
 PrismC:  IPart=     0 DynPar=F LinDyn=F Incr=           1 UseFst=F UseS4=T IGathr=2.
 PrismC was handed   268431585 working-precision words and    55 shell-pairs
 Enter PrismC: JobTyp=22 DoJE=F Cont=F.
 PrismC was handed   268431585 working-precision words and    55 shell-pairs
 Enter PrismC: JobTyp=22 DoJE=F Cont=F.
 PrismC was handed   268431585 working-precision words and    55 shell-pairs
 Enter PrismC: JobTyp=22 DoJE=F Cont=F.
 Enter PrismC: JobTyp=22 DoJE=F Cont=F.
 PrismC was handed   268431585 working-precision words and    55 shell-pairs
 PrismC was handed   268431585 working-precision words and    55 shell-pairs
 Enter PrismC: JobTyp=22 DoJE=F Cont=F.
 PrismC was handed   268431585 working-precision words and    55 shell-pairs
 Enter PrismC: JobTyp=22 DoJE=F Cont=F.
 PrismC was handed   268431585 working-precision words and    55 shell-pairs
 Enter PrismC: JobTyp=22 DoJE=F Cont=F.
 Enter PrismC: JobTyp=22 DoJE=F Cont=F.
 PrismC was handed   268431585 working-precision words and    55 shell-pairs
 Enter PrismC: JobTyp=22 DoJE=F Cont=F.
 PrismC was handed   268431585 working-precision words and    55 shell-pairs
 PrismC was handed   268431585 working-precision words and    55 shell-pairs
 IPart=  7 NShTot=          26 NShNF=          26 NShFF=           0 NBatch=          24 AvBLen=         1.1
 IPart=  9 NShTot=           0 NShNF=           0 NShFF=           0 NBatch=           0 AvBLen=         0.0
 IPart=  3 NShTot=          15 NShNF=          15 NShFF=           0 NBatch=          13 AvBLen=         1.2
 IPart=  1 NShTot=          52 NShNF=          52 NShFF=           0 NBatch=          49 AvBLen=         1.1
 IPart=  5 NShTot=          46 NShNF=          46 NShFF=           0 NBatch=          46 AvBLen=         1.0
 IPart=  8 NShTot=          23 NShNF=          23 NShFF=           0 NBatch=          23 AvBLen=         1.0
 IPart=  6 NShTot=           4 NShNF=           4 NShFF=           0 NBatch=           3 AvBLen=         1.3
 IPart=  4 NShTot=          38 NShNF=          38 NShFF=           0 NBatch=          37 AvBLen=         1.0
 IPart=  2 NShTot=         131 NShNF=         131 NShFF=           0 NBatch=         131 AvBLen=         1.0
 IPart=  0 NShTot=          86 NShNF=          86 NShFF=           0 NBatch=          85 AvBLen=         1.0
 CoulSu:  NxtVal=             11.
 ReadGW:  IGet=0 IStart=           1 Next=           1 LGW=           0.
 Remaining memory in FofDFT     2560.00 Mw
 CkSvGd:  ISavGI=        -1 IRadAn=       5 IRASav=       5 ISavGd=        -1.
 CalDSu:  NPrtUS=  10 ThrOK=T IAlg=1 NPAlg=2 DoDPD=T LenP=         231 LenD1P=             0.
 IPart=  0 IRanGd=          0 ScrnBf=T ScrnGd=T RCrit=4.00D+00 DoMicB=T.
 IPart=  8         2202 of         2244 points in       3 batches and        6 microbatches, Max-NSigAt=       4 Max-NSgAt2=       4
 IPart=  4         2358 of         2358 points in       2 batches and        6 microbatches, Max-NSigAt=       4 Max-NSgAt2=       4
 IPart=  5         1769 of         1884 points in       4 batches and        9 microbatches, Max-NSigAt=       4 Max-NSgAt2=       4
 IPart=  2         1632 of         1732 points in       4 batches and       12 microbatches, Max-NSigAt=       4 Max-NSgAt2=       4
 IPart=  6         1839 of         1970 points in       5 batches and       11 microbatches, Max-NSigAt=       4 Max-NSgAt2=       4
 IPart=  7         1301 of         1436 points in       4 batches and       16 microbatches, Max-NSigAt=       4 Max-NSgAt2=       4
 IPart=  3         1337 of         1436 points in       4 batches and       15 microbatches, Max-NSigAt=       4 Max-NSgAt2=       4
 IPart=  0         1620 of         1714 points in       4 batches and       16 microbatches, Max-NSigAt=       4 Max-NSgAt2=       4
 IPart=  9         1312 of         1436 points in       4 batches and       19 microbatches, Max-NSigAt=       4 Max-NSgAt2=       4
 IPart=  1         1347 of         1436 points in       4 batches and       17 microbatches, Max-NSigAt=       4 Max-NSgAt2=       4
 Polarizability after L703:
                1             2             3 
      1  0.118689D+02
      2  0.000000D+00  0.118688D+02
      3  0.000000D+00  0.000000D+00  0.505208D+01
 Dipole Derivatives after L703:
                 1             2             3             4             5 
      1   0.481627D-01  0.000000D+00  0.000000D+00  0.392587D-01  0.000000D+00
      2   0.000000D+00  0.481502D-01  0.000000D+00  0.000000D+00 -0.713564D-01
      3   0.000000D+00  0.000000D+00 -0.471393D+00  0.000000D+00  0.000000D+00
                 6             7             8             9            10 
      1   0.000000D+00 -0.437067D-01 -0.478985D-01  0.000000D+00 -0.437067D-01
      2   0.000000D+00 -0.478984D-01  0.116040D-01  0.000000D+00  0.478984D-01
      3   0.157127D+00  0.000000D+00  0.000000D+00  0.157130D+00  0.000000D+00
                11            12 
      1   0.478985D-01  0.000000D+00
      2   0.116040D-01  0.000000D+00
      3   0.000000D+00  0.157130D+00
 Hessian after L703:
                1             2             3             4             5 
      1  0.627171D+00
      2  0.000000D+00  0.627172D+00
      3  0.000000D+00  0.000000D+00  0.185992D-01
      4 -0.565229D-01  0.000000D+00  0.000000D+00  0.468655D-01
      5  0.000000D+00 -0.361592D+00  0.000000D+00  0.000000D+00  0.376018D+00
      6  0.000000D+00  0.000000D+00 -0.619852D-02  0.000000D+00  0.000000D+00
      7 -0.285324D+00 -0.132099D+00  0.000000D+00  0.482871D-02  0.345130D-02
      8 -0.132099D+00 -0.132790D+00  0.000000D+00 -0.243080D-01 -0.721293D-02
      9  0.000000D+00  0.000000D+00 -0.619943D-02  0.000000D+00  0.000000D+00
     10 -0.285324D+00  0.132099D+00  0.000000D+00  0.482871D-02 -0.345130D-02
     11  0.132099D+00 -0.132790D+00  0.000000D+00  0.243080D-01 -0.721293D-02
     12  0.000000D+00  0.000000D+00 -0.619943D-02  0.000000D+00  0.000000D+00
                6             7             8             9            10 
      6  0.201695D-02
      7  0.000000D+00  0.293730D+00
      8  0.000000D+00  0.142527D+00  0.129154D+00
      9  0.209078D-02  0.000000D+00  0.000000D+00  0.201695D-02
     10  0.000000D+00 -0.132337D-01  0.138797D-01  0.000000D+00  0.293730D+00
     11  0.000000D+00 -0.138797D-01  0.108495D-01  0.000000D+00 -0.142527D+00
     12  0.209078D-02  0.000000D+00  0.000000D+00  0.209078D-02  0.000000D+00
               11            12 
     11  0.129154D+00
     12  0.000000D+00  0.201695D-02
 Leave Link  703 at Tue Sep 10 12:26:04 2019, MaxMem=  2684354560 cpu:         3.4
 (Enter /soft/gaussian/09-e.01/g09/l716.exe)
 FrcOut:
 IF    =    42 IFX   =    54 IFXYZ =    66
 IFFX  =    78 IFFFX =   156 IFLen =    12
 IFFLen=    78 IFFFLn=     0 IEDerv=   156
 LEDerv=   629 IFroze=   943 ICStrt=  1920
 Dipole        = 1.66533454D-16 4.16333634D-17 7.88782745D-25
 DipoleDeriv   = 4.81627483D-02-2.52617783D-12 8.85067008D-32
                 2.84780793D-12 4.81502368D-02-9.00234762D-28
                 2.84481434D-31 9.60465690D-27-4.71392786D-01
                 3.92586639D-02-4.94121887D-14 7.10903554D-33
                -2.67496507D-12-7.13563577D-02-2.17298679D-25
                 5.06944100D-32-2.76717737D-23 1.57126526D-01
                -4.37066517D-02-4.78984110D-02 1.91476222D-25
                -4.78984607D-02 1.16039873D-02 1.10761459D-25
                 2.37291999D-23 1.38360749D-23 1.57129828D-01
                -4.37066517D-02 4.78984110D-02-1.91476309D-25
                 4.78984607D-02 1.16039873D-02 1.10761520D-25
                -2.37292001D-23 1.38360750D-23 1.57129828D-01
 Polarizability= 1.18689235D+01-4.15223411D-13 1.18687634D+01
                 6.04581497D-31-1.34257023D-26 5.05207923D+00
 VibFq2-Diag1:  N=     12 IV=           5 MDV=  2684351892 NE2=   223695990
 Full mass-weighted force constant matrix:
 Low frequencies ---  -43.9969  -43.9967  -41.5868   -0.0006    0.0021    0.1136
 Low frequencies ---  451.0854 1430.7266 1430.7266
 OrtVCM:  Ph=1 IPass= 1 DotMx1= 0.00D+00
 OrtVCM:  IS=    1 I=    1 IndO=    1 Dot= 1.00D+00 DotN= 1.00D+00 ElMax1= 8.94D-01 ElMax1N= 8.94D-01
 OrtVCM:  Ph=2 NNew=    0 IAdd=    2 IPass= 1 DotMx2= 0.00D+00
 OrtVCM:  IS=    1 I=    2 IndO=    2 Dot= 1.00D+00 DotN= 1.00D+00 ElMax1= 8.94D-01 ElMax1N= 8.94D-01
 OrtVCM:  Ph=2 NNew=    0 IAdd=    3 IPass= 1 DotMx2= 0.00D+00
 OrtVCM:  IS=    1 I=    3 IndO=    3 Dot= 1.00D+00 DotN= 1.00D+00 ElMax1= 8.94D-01 ElMax1N= 8.94D-01
 OrtVCM:  Ph=2 NNew=    0 IAdd=    4 IPass= 1 DotMx2= 2.08D-17
 OrtVCM:  IS=    1 I=    4 IndO=    4 Dot= 1.00D+00 DotN= 1.00D+00 ElMax1= 7.68D-01 ElMax1N= 7.68D-01
 OrtVCM:  Ph=2 NNew=    0 IAdd=    5 IPass= 1 DotMx2= 1.67D-16
 OrtVCM:  IS=    1 I=    5 IndO=    5 Dot= 1.00D+00 DotN= 1.00D+00 ElMax1= 8.04D-01 ElMax1N= 8.04D-01
 OrtVCM:  Ph=2 NNew=    0 IAdd=    6 IPass= 1 DotMx2= 2.78D-17
 OrtVCM:  IS=    1 I=    6 IndO=    6 Dot= 1.00D+00 DotN= 1.00D+00 ElMax1= 5.77D-01 ElMax1N= 5.77D-01
 OrtVCM:  Ph=1 IPass= 1 DotMx1= 8.94D-01
 OrtVCM:  Ph=1 IPass= 2 DotMx1= 3.89D-16
 OrtVCM:  IS=    1 I=    1 IndO=    7 Dot= 2.01D-01 DotN= 2.01D-01 ElMax1= 2.31D-01 ElMax1N= 2.31D-01
 OrtVCM:  Ph=2 NNew=    0 IAdd=    2 IPass= 1 DotMx2= 2.31D-33
 OrtVCM:  IS=    1 I=    2 IndO=    8 Dot= 2.01D-01 DotN= 2.01D-01 ElMax1= 2.31D-01 ElMax1N= 2.31D-01
 OrtVCM:  Ph=2 NNew=    0 IAdd=    3 IPass= 1 DotMx2= 9.18D-41
 OrtVCM:  IS=    1 I=    3 IndO=    9 Dot= 2.01D-01 DotN= 2.01D-01 ElMax1= 2.31D-01 ElMax1N= 2.31D-01
 OrtVCM:  Ph=2 NNew=    0 IAdd=    4 IPass= 1 DotMx2= 5.16D-01
 OrtVCM:  Ph=2 NNew=    0 IAdd=    4 IPass= 2 DotMx2= 9.17D-17
 OrtVCM:  IS=    1 I=    4 IndO=   10 Dot= 3.33D-01 DotN= 3.33D-01 ElMax1= 3.33D-01 ElMax1N= 3.33D-01
 OrtVCM:  Ph=2 NNew=    0 IAdd=    5 IPass= 1 DotMx2= 5.16D-01
 OrtVCM:  Ph=2 NNew=    0 IAdd=    5 IPass= 2 DotMx2= 1.39D-16
 OrtVCM:  IS=    1 I=    5 IndO=   11 Dot= 6.67D-01 DotN= 6.67D-01 ElMax1= 6.67D-01 ElMax1N= 6.67D-01
 OrtVCM:  Ph=2 NNew=    0 IAdd=    6 IPass= 1 DotMx2= 5.16D-01
 OrtVCM:  Ph=2 NNew=    0 IAdd=    6 IPass= 2 DotMx2= 1.23D-32
 OrtVCM:  IS=    1 I=    6 IndO=    0 Dot= 6.16D-33 DotN= 6.16D-33 ElMax1= 5.55D-17 ElMax1N= 5.55D-17
 SchOr2:  IPass= 1 Test2A= 1.00D-01 IOff=     0 NDo=     6 NNew=     5
 OrtVCM:  Ph=1 IPass= 1 DotMx1= 5.16D-01
 OrtVCM:  Ph=1 IPass= 2 DotMx1= 1.11D-16
 OrtVCM:  IS=    1 I=    1 IndO=   12 Dot= 5.00D-01 DotN= 5.00D-01 ElMax1= 5.00D-01 ElMax1N= 5.00D-01
 SchOr2:  IPass= 1 Test2A= 1.00D-01 IOff=     6 NDo=     1 NNew=     1
 VibFq2-Diag2:  N=      6 IV=           5 MDV=  2684351892 NE2=   447391981
 Dipole derivative wrt mode   1: -6.47601D-16 -2.34850D-16  9.47098D+00
 Vibrational polarizability contributions from mode   1       0.0000000       0.0000000      11.8633053
 Dipole derivative wrt mode   2:  1.52394D+00  7.92342D-06 -7.71388D-16
 Vibrational polarizability contributions from mode   2       0.0305319       0.0000000       0.0000000
 Dipole derivative wrt mode   3: -7.92323D-06  1.52397D+00 -1.65937D-16
 Vibrational polarizability contributions from mode   3       0.0000000       0.0305334       0.0000000
 Dipole derivative wrt mode   4:  1.43977D-11  3.87673D-05  1.60728D-23
 Vibrational polarizability contributions from mode   4       0.0000000       0.0000000       0.0000000
 Dipole derivative wrt mode   5: -2.73699D+00 -4.37822D-06  2.89417D-15
 Vibrational polarizability contributions from mode   5       0.0182920       0.0000000       0.0000000
 Dipole derivative wrt mode   6:  4.37849D-06 -2.73682D+00 -9.05125D-16
 Vibrational polarizability contributions from mode   6       0.0000000       0.0182897       0.0000000
 Diagonal vibrational polarizability:
        0.0488239       0.0488231      11.8633053
 NorSel:  MapVib=      1      2      3      4      5      6
 Harmonic frequencies (cm**-1), IR intensities (KM/Mole), Raman scattering
 activities (A**4/AMU), depolarization ratios for plane and unpolarized
 incident light, reduced masses (AMU), force constants (mDyne/A),
 and normal coordinates:
                      1                      2                      3
                     A2"                    E'                     E'
 Frequencies --    451.0854              1430.7266              1430.7266
 Red. masses --      1.2356                 1.1020                 1.1020
 Frc consts  --      0.1481                 1.3290                 1.3290
 IR Inten    --     89.6995                 2.3224                 2.3225
  Atom  AN      X      Y      Z        X      Y      Z        X      Y      Z
     1   6     0.00  -0.00  -0.14    -0.09  -0.00   0.00     0.00  -0.09   0.00
     2   1    -0.00   0.00   0.57     0.81  -0.00  -0.00    -0.00  -0.07  -0.00
     3   1     0.00   0.00   0.57     0.15  -0.38  -0.00    -0.38   0.59  -0.00
     4   1    -0.00  -0.00   0.57     0.15   0.38  -0.00     0.38   0.59  -0.00
                      4                      5                      6
                     A1'                    E'                     E'
 Frequencies --   3145.0525              3319.7753              3319.7758
 Red. masses --      1.0078                 1.1185                 1.1185
 Frc consts  --      5.8734                 7.2626                 7.2626
 IR Inten    --      0.0000                 7.4911                 7.4902
  Atom  AN      X      Y      Z        X      Y      Z        X      Y      Z
     1   6     0.00   0.00  -0.00    -0.10  -0.00  -0.00     0.00  -0.10   0.00
     2   1     0.00   0.58   0.00    -0.02   0.00   0.00     0.00   0.81  -0.00
     3   1    -0.50  -0.29   0.00     0.61   0.36   0.00     0.36   0.19  -0.00
     4   1     0.50  -0.29   0.00     0.61  -0.36   0.00    -0.36   0.19  -0.00

 -------------------
 - Thermochemistry -
 -------------------
 Temperature   298.150 Kelvin.  Pressure   1.00000 Atm.
 Atom     1 has atomic number  6 and mass  12.00000
 Atom     2 has atomic number  1 and mass   1.00783
 Atom     3 has atomic number  1 and mass   1.00783
 Atom     4 has atomic number  1 and mass   1.00783
 Molecular mass:    15.02348 amu.
 Principal axes and moments of inertia in atomic units:
                           1         2         3
     Eigenvalues --     6.32657   6.32657  12.65314
           X            0.94086   0.33881   0.00000
           Y           -0.33881   0.94086   0.00000
           Z            0.00000  -0.00000   1.00000
 This molecule is an oblate symmetric top.
 Rotational symmetry number  6.
 Rotational temperatures (Kelvin)     13.69048    13.69048     6.84524
 Rotational constants (GHZ):         285.26367   285.26367   142.63184
 Zero-point vibrational energy      78338.3 (Joules/Mol)
                                   18.72330 (Kcal/Mol)
 Warning -- explicit consideration of   1 degrees of freedom as
           vibrations may cause significant error
 Vibrational temperatures:    649.01  2058.49  2058.49  4525.02  4776.41
          (Kelvin)           4776.41
 
 Zero-point correction=                           0.029837 (Hartree/Particle)
 Thermal correction to Energy=                    0.032946
 Thermal correction to Enthalpy=                  0.033890
 Thermal correction to Gibbs Free Energy=         0.011702
 Sum of electronic and zero-point Energies=            -39.808454
 Sum of electronic and thermal Energies=               -39.805346
 Sum of electronic and thermal Enthalpies=             -39.804402
 Sum of electronic and thermal Free Energies=          -39.826590
 
                     E (Thermal)             CV                S
                      KCal/Mol        Cal/Mol-Kelvin    Cal/Mol-Kelvin
 Total                   20.674              7.511             46.699
 Electronic               0.000              0.000              1.377
 Translational            0.889              2.981             34.068
 Rotational               0.889              2.981             10.430
 Vibrational             18.896              1.549              0.824
 Vibration     1          0.810              1.358              0.793
                       Q            Log10(Q)             Ln(Q)
 Total Bot       0.414466D-05         -5.382511        -12.393689
 Total V=0       0.219660D+09          8.341751         19.207591
 Vib (Bot)       0.213248D-13        -13.671114        -31.478904
 Vib (Bot)    1  0.379831D+00         -0.420410         -0.968029
 Vib (V=0)       0.113018D+01          0.053147          0.122375
 Vib (V=0)    1  0.112791D+01          0.052275          0.120367
 Electronic      0.200000D+01          0.301030          0.693147
 Translational   0.228882D+07          6.359611         14.643545
 Rotational      0.424583D+02          1.627963          3.748523
 
                                                               comment:
                                                             IR Spectrum
 
      3     3                                                                 1                                                      
      3     1                                                                 4                                    4                 
      2     4                                                                 3                                    5                 
      0     5                                                                 1                                    1                 
 
      X                                                                       X                                    X                 
      X                                                                                                            X                 
      X                                                                                                            X                 
                                                                                                                   X                 
                                                                                                                   X                 
                                                                                                                   X                 
                                                                                                                   X                 
                                                                                                                   X                 
                                                                                                                   X                 
                                                                                                                   X                 
                                                                                                                   X                 
                                                                                                                   X                 
                                                                                                                   X                 
                                                                                                                   X                 
                                                                                                                   X                 
                                                                                                                   X                 
                                                                                                                   X                 
                                                                                                                   X                 
                                                                                                                   X                 
                                                                                                                   X                 
 
 Forces in standard orientation:
 -------------------------------------------------------------------
 Center     Atomic                   Forces (Hartrees/Bohr)
 Number     Number              X              Y              Z
 -------------------------------------------------------------------
      1        6           0.000000000   -0.000000000   -0.000000000
      2        1          -0.000000000   -0.000141704   -0.000000000
      3        1           0.000122720    0.000070852    0.000000000
      4        1          -0.000122720    0.000070852    0.000000000
 -------------------------------------------------------------------
 ***** Axes restored to original set *****
 Rotating derivatives, DoTrsp=F IDiff=-2 LEDeriv=    628 LFDPrp=       0 LDFDPr=       0.
 -------------------------------------------------------------------
 Center     Atomic                   Forces (Hartrees/Bohr)
 Number     Number              X              Y              Z
 -------------------------------------------------------------------
      1        6           0.000000000    0.000000000   -0.000000000
      2        1          -0.000000000    0.000141704   -0.000000000
      3        1           0.000122720   -0.000070852    0.000000000
      4        1          -0.000122720   -0.000070852   -0.000000000
 -------------------------------------------------------------------
 Cartesian Forces:  Max     0.000141704 RMS     0.000070852
 Z-matrix is all fixed cartesians, so copy forces.
 Force constants in Cartesian coordinates: 
                1             2             3             4             5 
      1  0.627171D+00
      2  0.000000D+00  0.627172D+00
      3  0.000000D+00  0.000000D+00  0.185992D-01
      4 -0.565229D-01  0.000000D+00  0.000000D+00  0.468655D-01
      5  0.000000D+00 -0.361592D+00  0.000000D+00  0.000000D+00  0.376018D+00
      6  0.000000D+00  0.000000D+00 -0.619852D-02  0.000000D+00  0.000000D+00
      7 -0.285324D+00  0.132099D+00  0.000000D+00  0.482871D-02 -0.345130D-02
      8  0.132099D+00 -0.132790D+00  0.000000D+00  0.243080D-01 -0.721293D-02
      9  0.000000D+00  0.000000D+00 -0.619943D-02  0.000000D+00  0.000000D+00
     10 -0.285324D+00 -0.132099D+00  0.000000D+00  0.482871D-02  0.345130D-02
     11 -0.132099D+00 -0.132790D+00  0.000000D+00 -0.243080D-01 -0.721293D-02
     12  0.000000D+00  0.000000D+00 -0.619943D-02  0.000000D+00  0.000000D+00
                6             7             8             9            10 
      6  0.201695D-02
      7  0.000000D+00  0.293730D+00
      8  0.000000D+00 -0.142527D+00  0.129154D+00
      9  0.209078D-02  0.000000D+00  0.000000D+00  0.201695D-02
     10  0.000000D+00 -0.132337D-01 -0.138797D-01  0.000000D+00  0.293730D+00
     11  0.000000D+00  0.138797D-01  0.108495D-01  0.000000D+00  0.142527D+00
     12  0.209078D-02  0.000000D+00  0.000000D+00  0.209078D-02  0.000000D+00
               11            12 
     11  0.129154D+00
     12  0.000000D+00  0.201695D-02
 Final forces over variables, Energy=-3.98382918D+01:
  1.24164176D-15-4.50407270D-12 1.22719673D-04-1.22719669D-04
  3.82967316D-15 1.41704470D-04-7.08522313D-05-7.08522391D-05
 -1.51470582D-23-9.67991727D-18 9.69495619D-18-1.50237762D-20
 Leave Link  716 at Tue Sep 10 12:26:04 2019, MaxMem=  2684354560 cpu:         0.3
 (Enter /soft/gaussian/09-e.01/g09/l103.exe)

 GradGradGradGradGradGradGradGradGradGradGradGradGradGradGradGradGradGrad
 Berny optimization.
 Search for a local minimum.
 Step number   1 out of a maximum of    2
 All quantities printed in internal units (Hartrees-Bohrs-Radians)
 Second derivative matrix not updated -- analytic derivatives used.
 The second derivative matrix:
                          X1        Y1        Z1        X2        Y2
           X1           0.62717
           Y1           0.00000   0.62717
           Z1           0.00000   0.00000   0.01860
           X2          -0.05652   0.00000  -0.00000   0.04687
           Y2           0.00000  -0.36159  -0.00000  -0.00000   0.37602
           Z2          -0.00000  -0.00000  -0.00620   0.00000   0.00000
           X3          -0.28532   0.13210   0.00000   0.00483  -0.00345
           Y3           0.13210  -0.13279  -0.00000   0.02431  -0.00721
           Z3           0.00000  -0.00000  -0.00620  -0.00000  -0.00000
           X4          -0.28532  -0.13210  -0.00000   0.00483   0.00345
           Y4          -0.13210  -0.13279  -0.00000  -0.02431  -0.00721
           Z4          -0.00000  -0.00000  -0.00620  -0.00000  -0.00000
                          Z2        X3        Y3        Z3        X4
           Z2           0.00202
           X3           0.00000   0.29373
           Y3           0.00000  -0.14253   0.12915
           Z3           0.00209  -0.00000   0.00000   0.00202
           X4           0.00000  -0.01323  -0.01388  -0.00000   0.29373
           Y4          -0.00000   0.01388   0.01085   0.00000   0.14253
           Z4           0.00209  -0.00000  -0.00000   0.00209   0.00000
                          Y4        Z4
           Y4           0.12915
           Z4           0.00000   0.00202
 ITU=  0
     Eigenvalues ---    0.02046   0.10533   0.10533   0.37725   0.82117
     Eigenvalues ---    0.82117
 Angle between quadratic step and forces=   0.00 degrees.
 ClnCor:  largest displacement from symmetrization is 6.62D-11 for atom     3.
 Linear search not attempted -- first point.
 ClnCor:  largest displacement from symmetrization is 1.11D-15 for atom     4.
 B after Tr=     0.000000    0.000000   -0.000000
         Rot=    1.000000   -0.000000   -0.000000   -0.000000 Ang=   0.00 deg.
 Variable       Old X    -DE/DX   Delta X   Delta X   Delta X     New X
                                 (Linear)    (Quad)   (Total)
    X1        0.00000   0.00000   0.00000   0.00000   0.00000   0.00000
    Y1       -0.00000   0.00000   0.00000   0.00000   0.00000  -0.00000
    Z1        0.00000  -0.00000   0.00000   0.00000  -0.00000  -0.00000
    X2       -0.00000  -0.00000   0.00000  -0.00000  -0.00000  -0.00000
    Y2        2.04572   0.00014   0.00000   0.00038   0.00038   2.04609
    Z2       -0.00000  -0.00000   0.00000   0.00000   0.00000   0.00000
    X3        1.77164   0.00012   0.00000   0.00033   0.00033   1.77197
    Y3       -1.02286  -0.00007   0.00000  -0.00019  -0.00019  -1.02305
    Z3        0.00000   0.00000   0.00000   0.00000  -0.00000  -0.00000
    X4       -1.77164  -0.00012   0.00000  -0.00033  -0.00033  -1.77197
    Y4       -1.02286  -0.00007   0.00000  -0.00019  -0.00019  -1.02305
    Z4       -0.00000  -0.00000   0.00000  -0.00000   0.00000  -0.00000
         Item               Value     Threshold  Converged?
 Maximum Force            0.000142     0.000450     YES
 RMS     Force            0.000071     0.000300     YES
 Maximum Displacement     0.000376     0.001800     YES
 RMS     Displacement     0.000188     0.001200     YES
 Predicted change in Energy=-7.984100D-08
 Optimization completed.
    -- Stationary point found.
 GradGradGradGradGradGradGradGradGradGradGradGradGradGradGradGradGradGrad

 Leave Link  103 at Tue Sep 10 12:26:04 2019, MaxMem=  2684354560 cpu:         0.2
 (Enter /soft/gaussian/09-e.01/g09/l9999.exe)

 Test job not archived.
 1\1\GINC-B444\Freq\UB3LYP\6-31G(d)\C1H3(2)\ELLIOTT\10-Sep-2019\0\\#P b
 3lyp/6-31g* # SCF=(xqc) # Freq=() # IOp(7/33=1) # int=ultrafine\\comme
 nt:\\0,2\C,0.,0.,0.\H,-0.0000000344,1.082548,0.\H,0.937514086,-0.54127
 39702,0.\H,-0.9375140516,-0.5412740298,0.\\Version=ES64L-G09RevE.01\St
 ate=2-A2"\HF=-39.8382918\S2=0.753762\S2-1=0.\S2A=0.750007\RMSD=8.786e-
 09\RMSF=7.085e-05\ZeroPoint=0.0298375\Thermal=0.032946\Dipole=0.,0.,0.
 \DipoleDeriv=0.0481627,0.,0.,0.,0.0481502,0.,0.,0.,-0.4713928,0.039258
 7,0.,0.,0.,-0.0713564,0.,0.,0.,0.1571265,-0.0437067,0.0478984,0.,0.047
 8985,0.011604,0.,0.,0.,0.1571298,-0.0437066,-0.0478984,0.,-0.0478985,0
 .011604,0.,0.,0.,0.1571298\Polar=11.8689235,0.,11.8687634,0.,0.,5.0520
 792\PG=D03H [O(C1),3C2(H1)]\NImag=0\\0.62717053,0.,0.62717194,0.,0.,0.
 01859920,-0.05652289,0.,0.,0.04686550,0.,-0.36159181,0.,-0.00000001,0.
 37601763,0.,0.,-0.00619852,0.,0.,0.00201695,-0.28532421,0.13209866,0.,
 0.00482871,-0.00345130,0.,0.29372961,0.13209851,-0.13279009,0.,0.02430
 803,-0.00721293,0.,-0.14252705,0.12915353,0.,0.,-0.00619943,0.,0.,0.00
 209078,0.,0.,0.00201695,-0.28532419,-0.13209867,0.,0.00482871,0.003451
 30,0.,-0.01323375,-0.01387967,0.,0.29372959,-0.13209852,-0.13279010,0.
 ,-0.02430803,-0.00721293,0.,0.01387967,0.01084953,0.,0.14252706,0.1291
 5354,0.,0.,-0.00619943,0.,0.,0.00209078,0.,0.,0.00209078,0.,0.,0.00201
 695\\0.,0.,0.,0.,-0.00014170,0.,-0.00012272,0.00007085,0.,0.00012272,0
 .00007085,0.\\\@


 IT IS BY EATING THE LIGHT OF A STAR THAT WE EXIST, 
 IN THE FINAL ANALYSIS, 
 JUST AS IT IS BY PERCEIVING THE LIGHT OF STARS
 THAT WE DEFINE THE WORLD AROUND US.

                                    -- GILBERT GROSVENOR
 Job cpu time:       0 days  0 hours  0 minutes 24.2 seconds.
 File lengths (MBytes):  RWF=     87 Int=      0 D2E=      0 Chk=      2 Scr=      2
 Normal termination of Gaussian 09 at Tue Sep 10 12:26:04 2019.
