[Molden Format]
[Molpro variables]
_NUMVAR=  691.0000000000000    
_EV2006= 0.3674930886769165E-01
_EV= 0.3674932534394180E-01
_KJOULE= 0.3808798324128737E-03
_KJOULE/MOL= 0.3808798324128737E-03
_CM= 0.4556335267302901E-05
_CM-1= 0.4556335267302901E-05
_KCAL= 0.1593601117815568E-02
_KCAL/MOL= 0.1593601117815568E-02
_KELVIN2006= 0.3166828861084835E-05
_KELVIN= 0.3166814820820034E-05
_HERTZ2006= 0.1519829850815779E-15
_HERTZ= 0.1519829846011223E-15
_HZ2006= 0.1519829850815779E-15
_HZ= 0.1519829846011223E-15
_TOA2006= 0.5291772490000000    
_TOA= 0.5291772090000000    
_TOANG2006= 0.5291772490000000    
_TOANG= 0.5291772090000000    
_TORAD= 0.1745329251994330E-01
_TOCM=  219474.6306700000    
_TODEBYE=  2.541580000000000    
_TOEV2006=  27.21139610000000    
_TOEV=  27.21138390000000    
_TOHERTZ2006=  6579683899900000.    
_TOHERTZ=  6579683920700000.    
_TOHZ2006=  6579683899900000.    
_TOHZ=  6579683920700000.    
_TOK2006=  315773.3000000000    
_TOK=  315774.7000000000    
_TOKCAL=  627.5096000000000    
_TOKELVIN2006=  315773.3000000000    
_TOKELVIN=  315774.7000000000    
_TOKJ=  2625.500000000000    
_TOKJOULE=  2625.500000000000    
_ANG2006=  1.889725988578923    
_ANG=  1.889726131421507    
_ANGSTROM2006=  1.889725988578923    
_ANGSTROM=  1.889726131421507    
_IGNORE_UNDEF=  2.000000000000000    
_STRICTCHECK=  0.000000000000000    
_SEW_ONEEL=  0.000000000000000    
_CPPDONE=FALSE
_DKROLL_DONE=  0.000000000000000    
_FOCKDONE=  0.000000000000000    
_GRADONE=FALSE
_HESSDONE=FALSE
_INTDONE=TRUE
_SCFDONE=FALSE
_MODUL_CUDA=FALSE
_MODUL_SLATER=FALSE
_MODUL_MRCC=FALSE
_MRCC_EXEC=
_FITC_AO_SAVED=FALSE
_FITC_MO_SAVED=FALSE
_SHARED_FS=TRUE
_LSTYP=SEWARD
_INTYP=INTS
_GEOMTYP=ZMAT
_GRADTYP=ALASKA
_DIRECT=FALSE
_SYNCM=  0.000000000000000    
_BASIS=CC-PVDZ
_ZORIENT=  1.000000000000000    
_NELEC=  16.00000000000000    
_SPIN=  0.000000000000000    
!SPIN=  0.000000000000000    
_QSDSTEP=  0.000000000000000    
_QSDIRC=  0.000000000000000    
_PROGRAM=RS2
_CPUSTEP= 0.5000000000000004E-01
_SYSSTEP= 0.1000000000000001E-01
_WALLSTEP=  1.580000000000000    
!DFMP2=  0.000000000000000    
!DFSCF=  0.000000000000000    
!SCSGRD=  0.000000000000000    
_BASINP=  610.0000000000000    
_CPUTOT=  1.950000000000000    
_DFTEXFAC=  1.000000000000000    
_DMX=-0.2289460133586764E-04
_DMY= 0.1864842697051867    
_DMZ= 0.2085828280821505    
_EMP2= -78.14035895844248    
_ENERGR= -77.88940545706672    
_ENERGU= -78.12347947827693    
_ENERGY= -78.14035895844248    
_ENUC=  30.07185719713963    
_GRADEXFAC=  9999.000000000000    
_GRADMETHOD=TRUE
!GRID_FREEZE= -1.000000000000000    
_ITERATIONS=  5.000000000000000    
_LASTNELEC=  2.000000000000000    
_LASTSPIN=  0.000000000000000    
_LASTSYM=  1.000000000000000    
_MPP_PROG=  1.000000000000000    
_NPROC_MPP=  4.000000000000000    
_NPROC_SMP=  1.000000000000000    
_NUMSTEP=  0.000000000000000    
_ORBITAL=  2142.200000000000    
_PI=  3.141592653589793    
!MCACT=  2.000000000000000    
!MCCLOSED=  7.000000000000000    
!MCFREEZE=  0.000000000000000    
!MCMS2=  0.000000000000000    
!MCNEL=  2.000000000000000    
!MCNSTSYM=  1.000000000000000    
!MCSTATE=  1.000000000000000    
!MCSYM=  1.000000000000000    
!MCWEIGHT=  1.000000000000000    
_SEIG_MIN= 0.4130201462178146E-02
_SEWPROP=TRUE
_STATUS=  1.000000000000000    
_SYSTOT= 0.2900000000000000    
_VERSION=  2010001.000000000    
_WALLTOT=  13.01000000000000    
_DATE=06-Sep-19
_LASTORB=MCSCF
_MACHINE=Linux-2.6.34-12-desktop/tt109(x86_64) 64 bit mpp version
_OUTPUT=/home/carlo/qm/combustion/barrierless/c2h4_c2h3_h/dist_3.4/molpro.xml
_PGROUP=C1
_TIME=02:50:21
_LIBMOL=/programs/molpro2010p/bin/../lib/
!SURFREC=  0.000000000000000    
!POLYREC=  0.000000000000000    
!DIPREC=  0.000000000000000    
!VSCFREC=  0.000000000000000    
!VCIREC=  0.000000000000000    
!PVCIREC=  0.000000000000000    
!VMP2REC=  0.000000000000000    
!VMCSCFREC=  0.000000000000000    
!GAREC=  0.000000000000000    
!SCFORB=  21002.00000000000    
!MCORB=  21422.00000000000    
!CIOCC=  9.000000000000000    
!CICORE=  2.000000000000000    
!CICLOS=  7.000000000000000    
!CIISTSYM=  1.000000000000000    
!CIISTMS2=  0.000000000000000    
!CIISTNEL=  12.00000000000000    
!NEWMOL=  0.000000000000000    
!NEWSYM=  0.000000000000000    
_SLFILES=slscratch
_NGSSTO=  9.000000000000000    
_SIN=SIN
_COS=COS
_TAN=TAN
_ACOS=ACOS
_ASIN=ASIN
_ATAN=ATAN
_COSH=COSH
_SINH=SINH
_TANH=TANH
_ABS=ABS
_MOD=MOD
_ERF=ERF
_REFC=REFC
_ERFC=ERFC
_HYPOT=HYPOT
_J0=J0
_J1=J1
_JN=JN
_GAMMA=GAMMA
_LGAMMA=LGAMMA
_Y0=Y0
_Y1=Y1
_YN=YN
_EXP=EXP
_LOG=LOG
_LOG10=LOG10
_SQRT=SQRT
_INT=INT
_NINT=NINT
_MAX=MAX
_MIN=MIN
_COSMO=  0.000000000000000    
_COSMOIT=  0.000000000000000    
_COSMOES=  0.000000000000000    
_COSMOEDS=  0.000000000000000    
_COSMOEC=  0.000000000000000    
_COSMOEDCORR=  0.000000000000000    
_FEPSI=  1.000000000000000    
_SL_IsMM=  0.000000000000000    
_SL_NSYM=  0.000000000000000    
_SL_System_BitSw=  0.000000000000000    
_SL_Unique_atoms=  0.000000000000000    
_SL_GRAD=  0.000000000000000    
_SL_MAXUPD_Hess=  5.000000000000000    
_SL_N_PRINT_COD=  5.000000000000000    
_SL_PRINT_CODES=  0.000000000000000    
_SL_BasType=  0.000000000000000    
_SL_Energy_Pred=  0.000000000000000    
_SL_New_Coords=  0.000000000000000    
_SL_Total_Nuclea=  0.000000000000000    
_SL_Highest_Mltp=  0.000000000000000    
_SL_Ref_Geom=  0.000000000000000    
!LATTICE= -1.000000000000000    
!NEWLATTICE=  0.000000000000000    
!LATGRAD_VAR=FALSE
!SEW_LATTICE=  1.000000000000000    
!LOCAL=  0.000000000000000    
!SAVEDOM= -1.000000000000000    
!RESTDOM= -1.000000000000000    
!SAVEDOM_HF= -1.000000000000000    
!RESTDOM_HF= -1.000000000000000    
!HESSREC=  0.000000000000000    
!FREQREC=  0.000000000000000    
!NMODREC=  0.000000000000000    
!GTASKS=  0.000000000000000    
!HTASKS=  0.000000000000000    
!THRCHG= 0.1000000000000000    
!DEBUG= -1.000000000000000    
!CFIT_CPHF=  0.000000000000000    
!RDOMAUX_CPHF=  3.000000000000000    
!THRAO_CPHF= 0.1000000000000000E-09
!THRMO_CPHF= 0.1000000000000000E-08
!THROV_CPHF= 0.1000000000000000E-11
!THRSW_CPHF= 0.1000000000000000E-09
!THRPROD_CPHF= 0.1000000000000000E-08
!THRAOPR_CPHF= 0.1000000000000000E-11
!CFIT_SCFGRD=  0.000000000000000    
!RDOMAUX_SCFGRD=  5.000000000000000    
!THRAO_SCFGRD= 0.1000000000000000E-09
!THRMO_SCFGRD= 0.1000000000000000E-08
!THROV_SCFGRD= 0.1000000000000000E-11
!THRSW_SCFGRD= 0.1000000000000000E-09
!THRPROD_SCFGRD= 0.1000000000000000E-08
!THRAOPR_SCFGRD= 0.1000000000000000E-11
!LOCFIT_SCF=  0.000000000000000    
!LOCFIT_MP2= -1.000000000000000    
_RIDOM=  0.000000000000000    
!CC2_METHOD=  0.000000000000000    
_BASIS2006=FALSE
_SVDDEL= -1.000000000000000    
_SVDDELA= -1.000000000000000    
_SVDDELP= -1.000000000000000    
_SVDDELF= -1.000000000000000    
_SVDDELS= -1.000000000000000    
_SVDDEL_ABS= -1.000000000000000    
_SVDDELA_ABS= -1.000000000000000    
_SVDDELP_ABS= -1.000000000000000    
_SVDDELF_ABS= -1.000000000000000    
_SVDDELS_ABS= -1.000000000000000    
_MAXBASIS=  0.000000000000000    
!OPT_CONICAL=  0.000000000000000    
!CLEARSP_JGRID=  0.000000000000000    
RCC1=  1.333647034686197    
RCC2=  1.100674653464579    
RCC3=  1.095713214225825    
RCH2=  1.092756815569103    
ACCC1=  121.0980096463428    
AHCC1=  121.7536498885544    
AHCC2=  119.2544523416006    
AHCC3=  135.8742443852797    
B1=  179.9999076006721    
B2=  179.9995049962847    
B3=  179.9956862473754    
RCH1=  3.400000000000000    
GX1= 0.1095076491756086E-04
GY1= 0.6152064964431418    
GZ1= -1.008380109088797    
GX2=-0.2233458824622433E-05
GY2=-0.4154784758753444    
GZ2=  1.291453776922619    
GX3= 0.1752381722043094E-04
GY3= 0.7704622822069510    
GZ3=  3.000206223235269    
GX4=-0.3586038504725759E-04
GY4= -2.467821201226517    
GZ4=  1.565798401427661    
GX5=-0.4065956296293268E-05
GY5= -3.216093552068274    
GZ5= -6.166155756070394    
GX6=-0.8147624195649144E-04
GY6=  2.533416700069905    
GZ6= -1.773063369804941    
CBSEN= -78.14035895844248    
[Atoms] Angs
C     1    6         0.0000057949        0.3255532567       -0.5336117717
C     2    6        -0.0000011819       -0.2198617403        0.6834079052
H     3    1         0.0000092732        0.4077110801        1.5876407556
H     4    1        -0.0000189765       -1.3059147356        0.8285848279
H     5    1        -0.0000021516       -1.7018834098       -3.2629890933
H     6    1        -0.0000431154        1.3406263786       -0.9382647254
[GTO]
  1 0
 s    9  1.00
  0.6665000000D+04  0.6920001793D-03
  0.1000000000D+04  0.5329001381D-02
  0.2280000000D+03  0.2707700701D-01
  0.6471000000D+02  0.1017180264D+00
  0.2106000000D+02  0.2747400712D+00
  0.7495000000D+01  0.4485641162D+00
  0.2797000000D+01  0.2850740738D+00
  0.5215000000D+00  0.1520400394D-01
  0.1596000000D+00 -0.3191000827D-02
 s    9  1.00
  0.6665000000D+04 -0.1460000642D-03
  0.1000000000D+04 -0.1154000508D-02
  0.2280000000D+03 -0.5725002519D-02
  0.6471000000D+02 -0.2331201026D-01
  0.2106000000D+02 -0.6395502813D-01
  0.7495000000D+01 -0.1499810660D+00
  0.2797000000D+01 -0.1272620560D+00
  0.5215000000D+00  0.5445292395D+00
  0.1596000000D+00  0.5804962554D+00
 s    9  1.00
  0.6665000000D+04  0.0000000000D+00
  0.1000000000D+04  0.0000000000D+00
  0.2280000000D+03  0.0000000000D+00
  0.6471000000D+02  0.0000000000D+00
  0.2106000000D+02  0.0000000000D+00
  0.7495000000D+01  0.0000000000D+00
  0.2797000000D+01  0.0000000000D+00
  0.5215000000D+00  0.0000000000D+00
  0.1596000000D+00  0.1000000000D+01
 p    4  1.00
  0.9439000000D+01  0.3810902127D-01
  0.2002000000D+01  0.2094801169D+00
  0.5456000000D+00  0.5085572839D+00
  0.1517000000D+00  0.4688422617D+00
 p    4  1.00
  0.9439000000D+01  0.0000000000D+00
  0.2002000000D+01  0.0000000000D+00
  0.5456000000D+00  0.0000000000D+00
  0.1517000000D+00  0.1000000000D+01
 d    1  1.00
  0.5500000000D+00  0.1000000000D+01
  
  2 0
 s    9  1.00
  0.6665000000D+04  0.6920001793D-03
  0.1000000000D+04  0.5329001381D-02
  0.2280000000D+03  0.2707700701D-01
  0.6471000000D+02  0.1017180264D+00
  0.2106000000D+02  0.2747400712D+00
  0.7495000000D+01  0.4485641162D+00
  0.2797000000D+01  0.2850740738D+00
  0.5215000000D+00  0.1520400394D-01
  0.1596000000D+00 -0.3191000827D-02
 s    9  1.00
  0.6665000000D+04 -0.1460000642D-03
  0.1000000000D+04 -0.1154000508D-02
  0.2280000000D+03 -0.5725002519D-02
  0.6471000000D+02 -0.2331201026D-01
  0.2106000000D+02 -0.6395502813D-01
  0.7495000000D+01 -0.1499810660D+00
  0.2797000000D+01 -0.1272620560D+00
  0.5215000000D+00  0.5445292395D+00
  0.1596000000D+00  0.5804962554D+00
 s    9  1.00
  0.6665000000D+04  0.0000000000D+00
  0.1000000000D+04  0.0000000000D+00
  0.2280000000D+03  0.0000000000D+00
  0.6471000000D+02  0.0000000000D+00
  0.2106000000D+02  0.0000000000D+00
  0.7495000000D+01  0.0000000000D+00
  0.2797000000D+01  0.0000000000D+00
  0.5215000000D+00  0.0000000000D+00
  0.1596000000D+00  0.1000000000D+01
 p    4  1.00
  0.9439000000D+01  0.3810902127D-01
  0.2002000000D+01  0.2094801169D+00
  0.5456000000D+00  0.5085572839D+00
  0.1517000000D+00  0.4688422617D+00
 p    4  1.00
  0.9439000000D+01  0.0000000000D+00
  0.2002000000D+01  0.0000000000D+00
  0.5456000000D+00  0.0000000000D+00
  0.1517000000D+00  0.1000000000D+01
 d    1  1.00
  0.5500000000D+00  0.1000000000D+01
  
  3 0
 s    4  1.00
  0.1301000000D+02  0.1968498999D-01
  0.1962000000D+01  0.1379769298D+00
  0.4446000000D+00  0.4781477569D+00
  0.1220000000D+00  0.5012397451D+00
 s    4  1.00
  0.1301000000D+02  0.0000000000D+00
  0.1962000000D+01  0.0000000000D+00
  0.4446000000D+00  0.0000000000D+00
  0.1220000000D+00  0.1000000000D+01
 p    1  1.00
  0.7270000000D+00  0.1000000000D+01
  
  4 0
 s    4  1.00
  0.1301000000D+02  0.1968498999D-01
  0.1962000000D+01  0.1379769298D+00
  0.4446000000D+00  0.4781477569D+00
  0.1220000000D+00  0.5012397451D+00
 s    4  1.00
  0.1301000000D+02  0.0000000000D+00
  0.1962000000D+01  0.0000000000D+00
  0.4446000000D+00  0.0000000000D+00
  0.1220000000D+00  0.1000000000D+01
 p    1  1.00
  0.7270000000D+00  0.1000000000D+01
  
  5 0
 s    4  1.00
  0.1301000000D+02  0.1968498999D-01
  0.1962000000D+01  0.1379769298D+00
  0.4446000000D+00  0.4781477569D+00
  0.1220000000D+00  0.5012397451D+00
 s    4  1.00
  0.1301000000D+02  0.0000000000D+00
  0.1962000000D+01  0.0000000000D+00
  0.4446000000D+00  0.0000000000D+00
  0.1220000000D+00  0.1000000000D+01
 p    1  1.00
  0.7270000000D+00  0.1000000000D+01
  
  6 0
 s    4  1.00
  0.1301000000D+02  0.1968498999D-01
  0.1962000000D+01  0.1379769298D+00
  0.4446000000D+00  0.4781477569D+00
  0.1220000000D+00  0.5012397451D+00
 s    4  1.00
  0.1301000000D+02  0.0000000000D+00
  0.1962000000D+01  0.0000000000D+00
  0.4446000000D+00  0.0000000000D+00
  0.1220000000D+00  0.1000000000D+01
 p    1  1.00
  0.7270000000D+00  0.1000000000D+01
 
 
[MO]
 Sym=      1.1
 Ene=     -11.2613
 Spin= Alpha
 Occup=    2.000000
1 0.99886911496118
2 0.006222791806666
3 -0.006918908690892
4 -0.000000072783321
5 0.001240328100355
6 0.000643603687484
7 0.000000088833370
8 -0.000936639267719
9 -0.001009066193368
10 -0.000698802021736
11 0.000538156913128
12 0.000160645108608
13 -0.000000050277239
14 0.000000030951359
15 -0.001176801720831
16 0.065194499959614
17 -0.000843771809302
18 0.001895489635686
19 -0.000000020256528
20 -0.000225791211850
21 0.000404679278829
22 0.000000002807463
23 0.001202997873188
24 -0.001060587815540
25 0.000273466982110
26 0.000180893418100
27 -0.000454360400210
28 -0.000000003021602
29 0.000000025430821
30 -0.000317853732565
31 0.000175581140650
32 0.000035753648208
33 -0.000000006812554
34 -0.000187423199204
35 -0.000178060114180
36 0.000062264783603
37 0.000766556114766
38 0.000000002865361
39 0.000034110964494
40 -0.000131047903027
41 -0.000167661120287
42 0.000117246033714
43 -0.000000000046567
44 0.000001346162516
45 0.000003503172140
46 -0.001474538796482
47 0.002245934004248
48 -0.000000050656461
49 0.000882077058717
50 0.000002243796901
 Sym=      2.1
 Ene=     -11.2488
 Spin= Alpha
 Occup=    2.000000
1 -0.066223744578636
2 -0.001259548666543
3 0.003054830573352
4 0.000000009208178
5 -0.000037439106916
6 -0.000371453864502
7 -0.000000002541935
8 -0.000597436370254
9 0.001148989434388
10 0.000349012923007
11 -0.000183672690148
12 -0.000165340232860
13 0.000000005041231
14 -0.000000005980226
15 0.000193632175427
16 0.99922125655362
17 0.008061743654179
18 -0.009191125596686
19 0.000000037921859
20 -0.000061940053972
21 0.000047051907246
22 -0.000000031045139
23 -0.000159213065463
24 0.000566962070064
25 -0.000750792717362
26 0.000282884475554
27 0.000467908241809
28 0.000000016218255
29 0.000000003131557
30 -0.000087964445420
31 -0.000557834876650
32 0.001453062803601
33 0.000000003912177
34 0.000367740945461
35 0.000395495749426
36 -0.000554840271641
37 0.001491847912010
38 -0.000000009720179
39 -0.000532252395252
40 0.000002919250427
41 0.000032506344126
42 -0.000030556026573
43 0.000000000002763
44 0.000000832814263
45 -0.000002912347310
46 0.000244016582374
47 0.000080829522770
48 0.000000015312669
49 -0.000178270213459
50 0.000048836421973
 Sym=      3.1
 Ene=      -1.0193
 Spin= Alpha
 Occup=    2.000000
1 -0.017372182419079
2 0.56568611644294
3 -0.12501927769139
4 -0.000002573973114
5 -0.047632897341792
6 0.22329944476244
7 0.000001281079945
8 0.012766914878453
9 -0.057954152162174
10 -0.010035954607522
11 -0.006960089896569
12 0.016996044504091
13 0.000000066980731
14 -0.000000215313063
15 -0.015376056624663
16 -0.023232542892662
17 0.65519234719239
18 -0.18681004117372
19 0.000000316250562
20 0.077342857672147
21 -0.15779345116713
22 -0.000000266671291
23 -0.027280475196319
24 0.065861688389741
25 -0.006930292458654
26 -0.005482510240634
27 0.012412802699288
28 0.000000008564726
29 -0.000000102995068
30 -0.013696391072145
31 0.20909163181815
32 -0.10247537640810
33 -0.000000173899426
34 -0.009847036608114
35 -0.017856458326702
36 0.21276436599841
37 -0.096900668870093
38 0.000000346500294
39 0.019570706837804
40 -0.004729975061664
41 -0.001250454878383
42 -0.001263345580755
43 0.000000000034468
44 0.000088570185589
45 0.000142397045975
46 0.16704019402752
47 -0.072264222438808
48 0.000000577183895
49 -0.012602072645019
50 0.008342750505663
 Sym=      4.1
 Ene=      -0.7631
 Spin= Alpha
 Occup=    2.000000
1 -0.010629121339010
2 0.52056966944012
3 -0.093282643091423
4 -0.000008204658763
5 0.24259960627778
6 -0.093756254754226
7 0.000003023732541
8 -0.056531714580397
9 0.022027279702890
10 -0.003052444143055
11 0.008775892229957
12 -0.005723448086902
13 -0.000000680147458
14 0.000000244894298
15 -0.001488585782166
16 0.010516982825931
17 -0.38686818063227
18 0.062467844167089
19 0.000000204181530
20 0.16943980087930
21 -0.24523056145425
22 -0.000000087795010
23 -0.037559567085772
24 0.054544549015501
25 0.001401185605570
26 -0.006362241284662
27 0.004961055679093
28 -0.000000244546075
29 0.000000037445117
30 -0.013660974464134
31 -0.28656143109823
32 0.10224858802021
33 0.000000219703639
34 0.013646284305615
35 0.012116854432789
36 -0.34701884363007
37 0.13724844110916
38 -0.000000424132100
39 -0.022011187972244
40 -0.001648468024059
41 -0.001805267206061
42 -0.002006210821603
43 0.000000000105021
44 0.000156762710733
45 0.000147962664009
46 0.48492983998709
47 -0.18101601547876
48 0.000001485391137
49 -0.026579479549387
50 0.010882084935425
 Sym=      5.1
 Ene=      -0.6150
 Spin= Alpha
 Occup=    2.000000
1 -0.002495520722973
2 -0.10553308417991
3 0.056689382541360
4 -0.000008708940649
5 0.39079562943357
6 -0.31795327241517
7 0.000002054408213
8 -0.10444046247191
9 0.084266647947948
10 -0.000659851157203
11 0.007523032946941
12 -0.006863181789738
13 -0.000000843540053
14 0.000000364786143
15 0.009776107199599
16 -0.002569200344799
17 0.011299214979354
18 0.019327066147222
19 -0.000001041397235
20 0.11784626569119
21 0.57693601262029
22 -0.000000177938228
23 -0.017859522214741
24 -0.12576774673212
25 -0.001249856904742
26 0.008535178481186
27 -0.007285321576444
28 -0.000000103692949
29 0.000000706701314
30 0.016025222001823
31 0.52603166621311
32 -0.15672490061522
33 -0.000000340927734
34 -0.015924701779476
35 -0.014624766614925
36 -0.027713979441506
37 0.012717111364318
38 -0.000000050087622
39 0.000027360830670
40 0.009733256226090
41 0.002563104529729
42 0.001870428901417
43 -0.000000002168559
44 0.000085639654560
45 -0.000089479313513
46 0.37756922597448
47 -0.11479372922780
48 0.000000991842935
49 -0.014983550572844
50 0.002290077655867
 Sym=      6.1
 Ene=      -0.5749
 Spin= Alpha
 Occup=    2.000000
1 0.002050974669923
2 -0.029783303960472
3 -0.028699309107225
4 0.000010922882875
5 -0.16472212678334
6 0.30234321569161
7 -0.000002387805392
8 0.036302553323950
9 -0.087425189508618
10 0.002230637547714
11 -0.023774220734923
12 0.021543583187209
13 0.000000471257342
14 -0.000000043263223
15 0.014651630034340
16 0.000782895506688
17 0.032031425388502
18 -0.010020280137585
19 0.000012023556535
20 0.60820193368757
21 -0.050220322304912
22 -0.000002551201014
23 -0.11967084376233
24 0.008646973919942
25 -0.000287684767077
26 -0.020658608101301
27 0.020946292868378
28 0.000000054941213
29 -0.000000440038376
30 0.007551348305302
31 0.33163807477557
32 -0.084299146742165
33 0.000000051810549
34 0.001495981973737
35 -0.015307226385034
36 -0.59681639101237
37 0.16407884296991
38 -0.000000293226465
39 -0.020755150625791
40 0.003971982006366
41 0.004134442770427
42 0.003340110258326
43 0.000000003126587
44 -0.000132912556550
45 -0.000151253018788
46 -0.30278872715759
47 0.072726647506665
48 -0.000000323540450
49 0.008841869421602
50 -0.000934597130361
 Sym=      7.1
 Ene=      -0.3810
 Spin= Alpha
 Occup=    2.000000
1 -0.000000250905148
2 0.000013888598326
3 0.000005498017789
4 0.57374497468887
5 0.000005056936736
6 -0.000015684120977
7 0.010776053706135
8 0.000001246432059
9 0.000000828794169
10 -0.000000553593133
11 0.000000960991836
12 -0.000000407398703
13 -0.009639918913210
14 0.033784755995338
15 -0.000000417918385
16 -0.000000261104493
17 -0.000006778529605
18 0.000002567200791
19 0.58513661207007
20 -0.000013916879266
21 0.000009133106242
22 0.025022120832300
23 0.000000771302020
24 -0.000002870959251
25 0.000000473811983
26 0.000000191561453
27 -0.000000665373436
28 0.014020648969872
29 -0.029987449628501
30 -0.000000014288699
31 0.000000417935927
32 0.000000068585883
33 0.013464868252127
34 -0.000000449466857
35 0.000000004568944
36 0.000004660286264
37 0.000000888257054
38 0.013340115742092
39 -0.000000235846946
40 0.000000186575754
41 -0.000000394545675
42 0.000000146603636
43 0.000365963382261
44 0.000000033461765
45 0.000000033172335
46 -0.000002265858299
47 0.000002270384803
48 0.014124702745466
49 0.000000975395594
50 -0.000000554659621
 Sym=      8.1
 Ene=      -0.1889
 Spin= Alpha
 Occup=    1.165433
1 -0.001666042410223
2 -0.23215035221712
3 -0.078463269658355
4 0.000004165637417
5 0.39606604423257
6 0.43710297845452
7 0.000001355546776
8 0.018570019484646
9 0.018796829002522
10 0.000566329332934
11 0.004840621871646
12 -0.005406951204580
13 -0.000000922670654
14 0.000000117084188
15 -0.018387781310475
16 0.001869298968742
17 0.080838191153571
18 -0.027968633533032
19 0.000007757506346
20 -0.000386138150531
21 -0.10018556545298
22 0.000001099931696
23 -0.047425521741105
24 0.010502019848566
25 -0.000490687981063
26 0.018003750057489
27 -0.017513062076426
28 0.000000368237642
29 -0.000000505189937
30 -0.019426643566358
31 -0.12804782075258
32 -0.008671794293838
33 0.000000207819928
34 0.000468814982883
35 -0.000405020354203
36 0.095178087040624
37 -0.017018335262256
38 0.000000205843236
39 -0.000058792927692
40 -0.002849642650442
41 -0.67855889598306
42 -0.021088939638401
43 0.000000025546105
44 -0.000449849190086
45 -0.000462878007452
46 0.15088479800747
47 -0.019819657690676
48 0.000000362953814
49 0.004047531852250
50 0.010705210231260
 Sym=      9.1
 Ene=      -0.1246
 Spin= Alpha
 Occup=    0.834567
1 -0.001918360338746
2 -0.25324364643846
3 -0.095377934139649
4 0.000004324972468
5 0.42109816906907
6 0.46919290646109
7 0.000001414875206
8 0.025873012530325
9 0.013110226674818
10 0.001943919878121
11 0.004570312121060
12 -0.006514231999182
13 -0.000001005508642
14 0.000000080708878
15 -0.020626000317921
16 0.001346842149839
17 0.080883395179843
18 -0.018875824556342
19 0.000007794388975
20 -0.000600106890304
21 -0.10777834854717
22 0.000001029054250
23 -0.053495361320673
24 -0.000686279408416
25 -0.001055011844991
26 0.018964275835607
27 -0.017909263990616
28 0.000000397782957
29 -0.000000546492255
30 -0.020515081413804
31 -0.13520915400373
32 -0.002704865405095
33 0.000000205526591
34 0.000400981144573
35 -0.000029976378922
36 0.096224416975872
37 -0.014823026810624
38 0.000000205538032
39 -0.000027689520845
40 -0.003056026133061
41 0.73827650293842
42 -0.022314670895243
43 -0.000000027314040
44 -0.000978208286834
45 -0.001494775002144
46 0.15331686084882
47 -0.020226929958414
48 0.000000364498133
49 0.003918286289996
50 0.010905625359330
 Sym=     10.1
 Ene=       0.1667
 Spin= Alpha
 Occup=    0.000000
1 -0.000002388698145
2 0.000013855837595
3 0.000043083810659
4 0.53771250928981
5 0.000025120908127
6 -0.000005675598965
7 0.49718996620188
8 0.000037313650794
9 -0.000020872821716
10 -0.000000003360359
11 0.000000462435583
12 -0.000000459075224
13 0.017178889342282
14 -0.016576337298775
15 0.000001397299322
16 -0.000000276891683
17 -0.000012334883973
18 0.000006736739975
19 -0.50981376191783
20 0.000011736467751
21 0.000009207569237
22 -0.50495915386252
23 0.000021148493890
24 -0.000012706497712
25 0.000000164151967
26 0.000000725391092
27 -0.000000889543058
28 0.010609397017191
29 -0.024950172844475
30 -0.000001492715994
31 -0.000008217189914
32 -0.000005896922725
33 -0.018316936136488
34 0.000000073917003
35 -0.000000046475281
36 0.000011641838922
37 0.000040283622099
38 -0.018546937271076
39 0.000000576544239
40 0.000000760315905
41 0.000000280292856
42 0.000000255261295
43 0.001521203962818
44 -0.000000050650279
45 -0.000000090869795
46 -0.000027498992115
47 -0.000063638630005
48 0.023820950679871
49 0.000001495063376
50 0.000000214497413
 Sym=     11.1
 Ene=       0.2097
 Spin= Alpha
 Occup=    0.000000
1 0.020477931187183
2 -0.073856521151492
3 -0.73778170810182
4 0.000010138283778
5 -0.15253225631535
6 0.10521300933658
7 0.000024894519088
8 -0.36909302887675
9 0.19287477147302
10 0.005570158124609
11 -0.009001576377192
12 0.003431418252584
13 0.000001758960607
14 -0.000000464434748
15 0.011576705605551
16 0.058898130901663
17 -0.14487917975073
18 -1.65957395594179
19 -0.000003757805516
20 0.029028268214552
21 -0.24994464884764
22 -0.000011427018336
23 0.18508231541599
24 -0.47357912073857
25 0.020350663306148
26 -0.019014656463124
27 -0.001336006843024
28 -0.000000855627829
29 -0.000000573909860
30 -0.002236189182348
31 0.030996788715342
32 1.37062814879435
33 -0.000000294559274
34 -0.009489869494743
35 -0.016142389545369
36 0.034489206102331
37 1.00708808994947
38 0.000000283425279
39 0.017416382007364
40 -0.004304514266437
41 -0.058001892002795
42 0.042052940879691
43 0.000000014585258
44 0.000435178998068
45 0.002702237765052
46 -0.028635054948845
47 1.02751063750377
48 0.000000718016192
49 -0.010423915844930
50 0.012826197345709
 Sym=     12.1
 Ene=       0.2226
 Spin= Alpha
 Occup=    0.000000
1 -0.039747980681349
2 0.15607786884606
3 1.05622230481005
4 -0.000034439841340
5 0.26193582590444
6 -0.034276116479028
7 -0.000059387017613
8 0.56433835868681
9 -0.25627433549513
10 -0.010838316339210
11 0.019749021518004
12 -0.008910705178794
13 -0.000002423790729
14 0.000001085829949
15 0.001000362326857
16 0.028937205242041
17 -0.16603119603987
18 -0.74932552551351
19 0.000022298732504
20 0.18429332750614
21 0.034978210058650
22 0.000045118788660
23 0.34701766314632
24 -0.14658954720194
25 0.010939891612957
26 -0.002659833933818
27 -0.008280057679139
28 -0.000000452403224
29 0.000001647444243
30 -0.014620576600905
31 -0.009037108338729
32 0.11589731789681
33 0.000000740903013
34 -0.006199309678325
35 -0.002539853505016
36 0.065084427202671
37 1.28433974031149
38 0.000000772858714
39 0.014517988588377
40 0.003535474822983
41 0.002492520366595
42 0.006192295336533
43 -0.000000107683964
44 -0.001567276402664
45 -0.000342993772570
46 -0.088657473612112
47 -1.72192218086903
48 -0.000002165408751
49 0.022260838143139
50 -0.002937954001967
 Sym=     13.1
 Ene=       0.2683
 Spin= Alpha
 Occup=    0.000000
1 -0.022078449898544
2 0.072904339725344
3 0.78888365355943
4 -0.000005107343323
5 0.076167257736146
6 -0.032400317842579
7 -0.000012602852869
8 0.74409720212740
9 0.12571201507008
10 -0.017414443313289
11 0.026058143545234
12 -0.008643700231945
13 -0.000001953172630
14 0.000000325388731
15 -0.015187855682383
16 0.011697028046511
17 -0.015923291605389
18 -0.22720665093981
19 -0.000008242350220
20 -0.37193904769038
21 -0.16691478699270
22 -0.000013064405158
23 -1.33150485488093
24 -0.50895743679118
25 0.005470656457106
26 0.015352448944320
27 -0.020823105401426
28 0.000000483917795
29 0.000000007378412
30 -0.019260507410060
31 -0.011813762083402
32 1.94258747011752
33 -0.000000263511115
34 -0.010776088680740
35 -0.024565762204801
36 0.029036007522739
37 -1.71874623600579
38 -0.000000585592617
39 -0.020793768758309
40 0.009725431234601
41 0.11102109389056
42 -0.073644970688768
43 0.000000002553970
44 -0.004722469397813
45 -0.007740824799269
46 0.062973316736187
47 -1.13003159696416
48 -0.000000664262254
49 0.018356133350089
50 -0.010167242517741
 Sym=     14.1
 Ene=       0.4554
 Spin= Alpha
 Occup=    0.000000
1 -0.043342587145543
2 0.18631208743356
3 3.67524070243410
4 0.000015121546557
5 -0.25535679799125
6 0.14486335995513
7 -0.000003696132682
8 -1.36923583006252
9 2.61647520389642
10 -0.030826739370808
11 -0.019988940439144
12 0.050815679809952
13 -0.000001360290493
14 -0.000000540400414
15 -0.046508718617936
16 0.080165005359098
17 0.055725663388940
18 -3.62875123815242
19 0.000005058658988
20 -0.017015614841554
21 0.093440309043991
22 -0.000030335003047
23 -1.18997326960979
24 3.13062112556935
25 0.055567686838290
26 -0.037406769129984
27 -0.018160917708307
28 -0.000001596073872
29 -0.000001471617210
30 0.026923067660833
31 -0.21306751443780
32 -0.68448179311634
33 -0.000000441386951
34 -0.011857963783420
35 0.003303099473080
36 -0.27280898091577
37 -0.22527285844622
38 0.000000565041548
39 0.020789106861170
40 0.009120133917061
41 0.20373554011576
42 -0.18149682498214
43 -0.000000077001278
44 -0.010111458504618
45 -0.006123070689709
46 -0.083419876493516
47 1.16664734131555
48 -0.000000968246064
49 0.015669228813641
50 -0.000138175261425
 Sym=     15.1
 Ene=       0.5944
 Spin= Alpha
 Occup=    0.000000
1 -0.16865590444393
2 -0.53178598846824
3 0.84238961345593
4 0.000006041454509
5 0.10874827599359
6 -0.52774599394520
7 -0.000020425511925
8 -0.50499885341823
9 1.33330830877401
10 0.081959637408409
11 -0.066312700572029
12 -0.015646936836380
13 0.000005975074711
14 -0.000001149059233
15 0.12104158882705
16 -0.10830418996618
17 -0.55558116535570
18 -0.34257834706107
19 0.000008387780822
20 -0.35073302462997
21 0.65523816065047
22 0.000006195681570
23 0.53006100196282
24 -0.53602045699408
25 0.025888157070231
26 0.012543422850441
27 -0.038431579920672
28 -0.000000277004987
29 0.000000075526496
30 -0.005496721548921
31 -0.16466135808342
32 0.005019890398227
33 0.000001140640069
34 0.010756422953784
35 -0.047460677922880
36 0.52408854045853
37 -0.36350270074760
38 0.000001363813636
39 0.017425377856512
40 0.004399963113309
41 0.13420679696418
42 -0.12347829875975
43 -0.000000164159856
44 -0.008435648012155
45 -0.006484683897661
46 -0.69466015703310
47 0.99591755714343
48 0.000000767104542
49 -0.073534732223336
50 0.074054622189520
 Sym=     16.1
 Ene=       0.6121
 Spin= Alpha
 Occup=    0.000000
1 -0.061939884743957
2 -0.22203208885993
3 0.47857359592009
4 -0.000019333472912
5 0.24235905838961
6 0.46509671416462
7 -0.000007758276558
8 -0.015805849003444
9 -0.82804692842122