[Molden Format]
[Molpro variables]
_NUMVAR=  703.0000000000000    
_EV2006= 0.3674930886769165E-01
_EV= 0.3674932534394180E-01
_KJOULE= 0.3808798324128737E-03
_KJOULE/MOL= 0.3808798324128737E-03
_CM= 0.4556335267302901E-05
_CM-1= 0.4556335267302901E-05
_KCAL= 0.1593601117815568E-02
_KCAL/MOL= 0.1593601117815568E-02
_KELVIN2006= 0.3166828861084835E-05
_KELVIN= 0.3166814820820034E-05
_HERTZ2006= 0.1519829850815779E-15
_HERTZ= 0.1519829846011223E-15
_HZ2006= 0.1519829850815779E-15
_HZ= 0.1519829846011223E-15
_TOA2006= 0.5291772490000000    
_TOA= 0.5291772090000000    
_TOANG2006= 0.5291772490000000    
_TOANG= 0.5291772090000000    
_TORAD= 0.1745329251994330E-01
_TOCM=  219474.6306700000    
_TODEBYE=  2.541580000000000    
_TOEV2006=  27.21139610000000    
_TOEV=  27.21138390000000    
_TOHERTZ2006=  6579683899900000.    
_TOHERTZ=  6579683920700000.    
_TOHZ2006=  6579683899900000.    
_TOHZ=  6579683920700000.    
_TOK2006=  315773.3000000000    
_TOK=  315774.7000000000    
_TOKCAL=  627.5096000000000    
_TOKELVIN2006=  315773.3000000000    
_TOKELVIN=  315774.7000000000    
_TOKJ=  2625.500000000000    
_TOKJOULE=  2625.500000000000    
_ANG2006=  1.889725988578923    
_ANG=  1.889726131421507    
_ANGSTROM2006=  1.889725988578923    
_ANGSTROM=  1.889726131421507    
_IGNORE_UNDEF=  2.000000000000000    
_STRICTCHECK=  0.000000000000000    
_SEW_ONEEL=  0.000000000000000    
_CPPDONE=FALSE
_DKROLL_DONE=  0.000000000000000    
_FOCKDONE=  0.000000000000000    
_GRADONE=FALSE
_HESSDONE=FALSE
_INTDONE=TRUE
_SCFDONE=FALSE
_MODUL_CUDA=FALSE
_MODUL_SLATER=FALSE
_MODUL_MRCC=FALSE
_MRCC_EXEC=
_FITC_AO_SAVED=FALSE
_FITC_MO_SAVED=FALSE
_SHARED_FS=TRUE
_LSTYP=SEWARD
_INTYP=INTS
_GEOMTYP=ZMAT
_GRADTYP=ALASKA
_DIRECT=FALSE
_SYNCM=  0.000000000000000    
_BASIS=CC-PVDZ
_ZORIENT=  1.000000000000000    
_NELEC=  16.00000000000000    
_SPIN=  0.000000000000000    
!SPIN=  0.000000000000000    
_QSDSTEP=  0.000000000000000    
_QSDIRC=  0.000000000000000    
_PROGRAM=RS2
_CPUSTEP= 0.6999999999999984E-01
_SYSSTEP= 0.1999999999999996E-01
_WALLSTEP= 0.9700000000000000    
!DFMP2=  0.000000000000000    
!DFSCF=  0.000000000000000    
!SCSGRD=  0.000000000000000    
_BASINP=  610.0000000000000    
_CPUTOT=  1.930000000000000    
_DFTEXFAC=  1.000000000000000    
_DMX= 0.2891948012211882E-04
_DMY=-0.2424698945871029    
_DMZ= 0.2439868462621235    
_EMP2= -78.14594524961313    
_ENERGR= -77.89622659266965    
_ENERGU= -78.12935094747779    
_ENERGY= -78.14594524961313    
_ENUC=  30.99884363596525    
_GRADEXFAC=  9999.000000000000    
_GRADMETHOD=TRUE
!GRID_FREEZE= -1.000000000000000    
_ITERATIONS=  5.000000000000000    
_LASTNELEC=  2.000000000000000    
_LASTSPIN=  0.000000000000000    
_LASTSYM=  1.000000000000000    
_MPP_PROG=  1.000000000000000    
_NPROC_MPP=  4.000000000000000    
_NPROC_SMP=  1.000000000000000    
_NUMSTEP=  0.000000000000000    
_ORBITAL=  2142.200000000000    
_PI=  3.141592653589793    
!MCACT=  2.000000000000000    
!MCCLOSED=  7.000000000000000    
!MCFREEZE=  0.000000000000000    
!MCMS2=  0.000000000000000    
!MCNEL=  2.000000000000000    
!MCNSTSYM=  1.000000000000000    
!MCSTATE=  1.000000000000000    
!MCSYM=  1.000000000000000    
!MCWEIGHT=  1.000000000000000    
_SEIG_MIN= 0.3696444172878174E-02
_SEWPROP=TRUE
_STATUS=  1.000000000000000    
_SYSTOT= 0.3500000000000000    
_VERSION=  2010001.000000000    
_WALLTOT=  9.260000000000000    
_DATE=08-Sep-19
_LASTORB=MCSCF
_MACHINE=Linux-2.6.34-12-desktop/tt109(x86_64) 64 bit mpp version
_OUTPUT=/home/carlo/qm/combustion/barrierless/c2h4_c2h3_h/dist_2.8/molpro.xml
_PGROUP=C1
_TIME=12:30:43
_LIBMOL=/programs/molpro2010p/bin/../lib/
!SURFREC=  0.000000000000000    
!POLYREC=  0.000000000000000    
!DIPREC=  0.000000000000000    
!VSCFREC=  0.000000000000000    
!VCIREC=  0.000000000000000    
!PVCIREC=  0.000000000000000    
!VMP2REC=  0.000000000000000    
!VMCSCFREC=  0.000000000000000    
!GAREC=  0.000000000000000    
!SCFORB=  21002.00000000000    
!MCORB=  21422.00000000000    
!CIOCC=  9.000000000000000    
!CICORE=  2.000000000000000    
!CICLOS=  7.000000000000000    
!CIISTSYM=  1.000000000000000    
!CIISTMS2=  0.000000000000000    
!CIISTNEL=  12.00000000000000    
!NEWMOL=  1.000000000000000    
!NEWSYM=  1.000000000000000    
_SLFILES=slscratch
_NGSSTO=  9.000000000000000    
_SIN=SIN
_COS=COS
_TAN=TAN
_ACOS=ACOS
_ASIN=ASIN
_ATAN=ATAN
_COSH=COSH
_SINH=SINH
_TANH=TANH
_ABS=ABS
_MOD=MOD
_ERF=ERF
_REFC=REFC
_ERFC=ERFC
_HYPOT=HYPOT
_J0=J0
_J1=J1
_JN=JN
_GAMMA=GAMMA
_LGAMMA=LGAMMA
_Y0=Y0
_Y1=Y1
_YN=YN
_EXP=EXP
_LOG=LOG
_LOG10=LOG10
_SQRT=SQRT
_INT=INT
_NINT=NINT
_MAX=MAX
_MIN=MIN
_COSMO=  0.000000000000000    
_COSMOIT=  0.000000000000000    
_COSMOES=  0.000000000000000    
_COSMOEDS=  0.000000000000000    
_COSMOEC=  0.000000000000000    
_COSMOEDCORR=  0.000000000000000    
_FEPSI=  1.000000000000000    
_SL_IsMM=  0.000000000000000    
_SL_NSYM=  0.000000000000000    
_SL_System_BitSw=  0.000000000000000    
_SL_Unique_atoms=  0.000000000000000    
_SL_GRAD=  0.000000000000000    
_SL_MAXUPD_Hess=  5.000000000000000    
_SL_N_PRINT_COD=  5.000000000000000    
_SL_PRINT_CODES=  0.000000000000000    
_SL_BasType=  0.000000000000000    
_SL_Energy_Pred=  0.000000000000000    
_SL_New_Coords=  0.000000000000000    
_SL_Total_Nuclea=  0.000000000000000    
_SL_Highest_Mltp=  0.000000000000000    
_SL_Ref_Geom=  0.000000000000000    
!LATTICE= -1.000000000000000    
!NEWLATTICE=  0.000000000000000    
!LATGRAD_VAR=FALSE
!SEW_LATTICE=  1.000000000000000    
!LOCAL=  0.000000000000000    
!SAVEDOM= -1.000000000000000    
!RESTDOM= -1.000000000000000    
!SAVEDOM_HF= -1.000000000000000    
!RESTDOM_HF= -1.000000000000000    
!HESSREC=  0.000000000000000    
!FREQREC=  0.000000000000000    
!NMODREC=  0.000000000000000    
!GTASKS=  0.000000000000000    
!HTASKS=  0.000000000000000    
!THRCHG= 0.1000000000000000    
!DEBUG= -1.000000000000000    
!CFIT_CPHF=  0.000000000000000    
!RDOMAUX_CPHF=  3.000000000000000    
!THRAO_CPHF= 0.1000000000000000E-09
!THRMO_CPHF= 0.1000000000000000E-08
!THROV_CPHF= 0.1000000000000000E-11
!THRSW_CPHF= 0.1000000000000000E-09
!THRPROD_CPHF= 0.1000000000000000E-08
!THRAOPR_CPHF= 0.1000000000000000E-11
!CFIT_SCFGRD=  0.000000000000000    
!RDOMAUX_SCFGRD=  5.000000000000000    
!THRAO_SCFGRD= 0.1000000000000000E-09
!THRMO_SCFGRD= 0.1000000000000000E-08
!THROV_SCFGRD= 0.1000000000000000E-11
!THRSW_SCFGRD= 0.1000000000000000E-09
!THRPROD_SCFGRD= 0.1000000000000000E-08
!THRAOPR_SCFGRD= 0.1000000000000000E-11
!LOCFIT_SCF=  0.000000000000000    
!LOCFIT_MP2= -1.000000000000000    
_RIDOM=  0.000000000000000    
!CC2_METHOD=  0.000000000000000    
_BASIS2006=FALSE
_SVDDEL= -1.000000000000000    
_SVDDELA= -1.000000000000000    
_SVDDELP= -1.000000000000000    
_SVDDELF= -1.000000000000000    
_SVDDELS= -1.000000000000000    
_SVDDEL_ABS= -1.000000000000000    
_SVDDELA_ABS= -1.000000000000000    
_SVDDELP_ABS= -1.000000000000000    
_SVDDELF_ABS= -1.000000000000000    
_SVDDELS_ABS= -1.000000000000000    
_MAXBASIS=  0.000000000000000    
!OPT_CONICAL=  0.000000000000000    
!CLEARSP_JGRID=  0.000000000000000    
RCC1=  1.311000000000000    
RCC2=  1.088400000000000    
RCC3=  1.082300000000000    
RCH2=  1.079200000000000    
ACCC1=  119.6293000000000    
AHCC1=  122.8326000000000    
AHCC2=  118.4755000000000    
AHCC3=  131.8503000000000    
B1=  180.0002000000000    
B2=  179.9999000000000    
B3=  179.9999000000000    
RCH1=  1.800000000000000    
GX1=-0.9716968711469203E-04
GY1=-0.4595117822795867    
GZ1= -1.073148089223301    
GX2= 0.8552543595278032E-04
GY2= 0.2751434602662479    
GZ2=  1.271074861079430    
GX3=-0.2036755149253391E-03
GY3=  2.259498724933093    
GZ3=  1.788598681858313    
GX4=-0.2261066307298087E-03
GY4= -1.075278288125407    
GZ4=  2.826434354814844    
GX5= 0.4464869821635574E-03
GY5= -2.216235558331687    
GZ5= -2.106791848639013    
GX6= 0.1220525307016640E-03
GY6=  3.229018827798395    
GZ6= -4.866812587883315    
RCC91=  1.300000000000000    
RCC92=  1.085200000000000    
RCC93=  1.090000000000000    
RCH91=  1.078600000000000    
ACCC91=  122.0177000000000    
AHCC91=  121.6338000000000    
AHCC92=  137.8727000000000    
B91=  179.9750000000000    
B92=  179.9847000000000    
AABS1=  118.4045698902944    
BABS1= 0.1719708992555036E-01
RTS=  2.800000000000000    
CBSEN= -78.14594524961313    
[Atoms] Angs
C     1    6        -0.0000514200       -0.2431631624       -0.5678855107
C     2    6         0.0000452581        0.1455996484        0.6726238474
H     3    1        -0.0001077804        1.1956752290        0.9464856585
H     4    1        -0.0001196505       -0.5690127634        1.4956846433
H     5    1         0.0002362707       -1.1727813472       -1.1148662304
H     6    1         0.0000645874        1.7087231711       -2.5754063020
[GTO]
  1 0
 s    9  1.00
  0.6665000000D+04  0.6920001793D-03
  0.1000000000D+04  0.5329001381D-02
  0.2280000000D+03  0.2707700701D-01
  0.6471000000D+02  0.1017180264D+00
  0.2106000000D+02  0.2747400712D+00
  0.7495000000D+01  0.4485641162D+00
  0.2797000000D+01  0.2850740738D+00
  0.5215000000D+00  0.1520400394D-01
  0.1596000000D+00 -0.3191000827D-02
 s    9  1.00
  0.6665000000D+04 -0.1460000642D-03
  0.1000000000D+04 -0.1154000508D-02
  0.2280000000D+03 -0.5725002519D-02
  0.6471000000D+02 -0.2331201026D-01
  0.2106000000D+02 -0.6395502813D-01
  0.7495000000D+01 -0.1499810660D+00
  0.2797000000D+01 -0.1272620560D+00
  0.5215000000D+00  0.5445292395D+00
  0.1596000000D+00  0.5804962554D+00
 s    9  1.00
  0.6665000000D+04  0.0000000000D+00
  0.1000000000D+04  0.0000000000D+00
  0.2280000000D+03  0.0000000000D+00
  0.6471000000D+02  0.0000000000D+00
  0.2106000000D+02  0.0000000000D+00
  0.7495000000D+01  0.0000000000D+00
  0.2797000000D+01  0.0000000000D+00
  0.5215000000D+00  0.0000000000D+00
  0.1596000000D+00  0.1000000000D+01
 p    4  1.00
  0.9439000000D+01  0.3810902127D-01
  0.2002000000D+01  0.2094801169D+00
  0.5456000000D+00  0.5085572839D+00
  0.1517000000D+00  0.4688422617D+00
 p    4  1.00
  0.9439000000D+01  0.0000000000D+00
  0.2002000000D+01  0.0000000000D+00
  0.5456000000D+00  0.0000000000D+00
  0.1517000000D+00  0.1000000000D+01
 d    1  1.00
  0.5500000000D+00  0.1000000000D+01
  
  2 0
 s    9  1.00
  0.6665000000D+04  0.6920001793D-03
  0.1000000000D+04  0.5329001381D-02
  0.2280000000D+03  0.2707700701D-01
  0.6471000000D+02  0.1017180264D+00
  0.2106000000D+02  0.2747400712D+00
  0.7495000000D+01  0.4485641162D+00
  0.2797000000D+01  0.2850740738D+00
  0.5215000000D+00  0.1520400394D-01
  0.1596000000D+00 -0.3191000827D-02
 s    9  1.00
  0.6665000000D+04 -0.1460000642D-03
  0.1000000000D+04 -0.1154000508D-02
  0.2280000000D+03 -0.5725002519D-02
  0.6471000000D+02 -0.2331201026D-01
  0.2106000000D+02 -0.6395502813D-01
  0.7495000000D+01 -0.1499810660D+00
  0.2797000000D+01 -0.1272620560D+00
  0.5215000000D+00  0.5445292395D+00
  0.1596000000D+00  0.5804962554D+00
 s    9  1.00
  0.6665000000D+04  0.0000000000D+00
  0.1000000000D+04  0.0000000000D+00
  0.2280000000D+03  0.0000000000D+00
  0.6471000000D+02  0.0000000000D+00
  0.2106000000D+02  0.0000000000D+00
  0.7495000000D+01  0.0000000000D+00
  0.2797000000D+01  0.0000000000D+00
  0.5215000000D+00  0.0000000000D+00
  0.1596000000D+00  0.1000000000D+01
 p    4  1.00
  0.9439000000D+01  0.3810902127D-01
  0.2002000000D+01  0.2094801169D+00
  0.5456000000D+00  0.5085572839D+00
  0.1517000000D+00  0.4688422617D+00
 p    4  1.00
  0.9439000000D+01  0.0000000000D+00
  0.2002000000D+01  0.0000000000D+00
  0.5456000000D+00  0.0000000000D+00
  0.1517000000D+00  0.1000000000D+01
 d    1  1.00
  0.5500000000D+00  0.1000000000D+01
  
  3 0
 s    4  1.00
  0.1301000000D+02  0.1968498999D-01
  0.1962000000D+01  0.1379769298D+00
  0.4446000000D+00  0.4781477569D+00
  0.1220000000D+00  0.5012397451D+00
 s    4  1.00
  0.1301000000D+02  0.0000000000D+00
  0.1962000000D+01  0.0000000000D+00
  0.4446000000D+00  0.0000000000D+00
  0.1220000000D+00  0.1000000000D+01
 p    1  1.00
  0.7270000000D+00  0.1000000000D+01
  
  4 0
 s    4  1.00
  0.1301000000D+02  0.1968498999D-01
  0.1962000000D+01  0.1379769298D+00
  0.4446000000D+00  0.4781477569D+00
  0.1220000000D+00  0.5012397451D+00
 s    4  1.00
  0.1301000000D+02  0.0000000000D+00
  0.1962000000D+01  0.0000000000D+00
  0.4446000000D+00  0.0000000000D+00
  0.1220000000D+00  0.1000000000D+01
 p    1  1.00
  0.7270000000D+00  0.1000000000D+01
  
  5 0
 s    4  1.00
  0.1301000000D+02  0.1968498999D-01
  0.1962000000D+01  0.1379769298D+00
  0.4446000000D+00  0.4781477569D+00
  0.1220000000D+00  0.5012397451D+00
 s    4  1.00
  0.1301000000D+02  0.0000000000D+00
  0.1962000000D+01  0.0000000000D+00
  0.4446000000D+00  0.0000000000D+00
  0.1220000000D+00  0.1000000000D+01
 p    1  1.00
  0.7270000000D+00  0.1000000000D+01
  
  6 0
 s    4  1.00
  0.1301000000D+02  0.1968498999D-01
  0.1962000000D+01  0.1379769298D+00
  0.4446000000D+00  0.4781477569D+00
  0.1220000000D+00  0.5012397451D+00
 s    4  1.00
  0.1301000000D+02  0.0000000000D+00
  0.1962000000D+01  0.0000000000D+00
  0.4446000000D+00  0.0000000000D+00
  0.1220000000D+00  0.1000000000D+01
 p    1  1.00
  0.7270000000D+00  0.1000000000D+01
 
 
[MO]
 Sym=      1.1
 Ene=     -11.2608
 Spin= Alpha
 Occup=    2.000000
1 0.99939997599462
2 0.006605917409041
3 -0.007115200289851
4 0.000000686816700
5 -0.001213110865989
6 0.000445055439599
7 -0.000000774089814
8 0.000905822075370
9 -0.000776725306004
10 -0.000790518062877
11 0.000276041858948
12 0.000514476203930
13 -0.000000263327334
14 -0.000000244591470
15 0.001387995158543
16 0.057261366097198
17 -0.001175994571704
18 0.002083440386529
19 0.000000207566201
20 0.000169022663387
21 0.000476422367124
22 0.000000085335491
23 -0.001003366979101
24 -0.001237096748168
25 0.000282768862811
26 0.000089906377279
27 -0.000372675240090
28 0.000000038343601
29 -0.000000198061570
30 0.000527587830515
31 0.000074593037093
32 0.000742449475528
33 -0.000000025605361
34 -0.000015733876877
35 -0.000176566268165
36 0.000358110365801
37 -0.000040521970489
38 0.000000090752542
39 0.000233437988380
40 -0.000211604024047
41 -0.001750132563195
42 0.002370623180920
43 0.000000357916965
44 -0.000933582100390
45 -0.000135868641210
46 -0.000295795310071
47 0.000215644485277
48 0.000000000977934
49 -0.000036478127060
50 0.000044168860500
 Sym=      2.1
 Ene=     -11.2437
 Spin= Alpha
 Occup=    2.000000
1 -0.058540947462463
2 -0.001427179361891
3 0.003317327312456
4 -0.000000187616725
5 0.000056766950927
6 -0.000397119472492
7 -0.000000005835244
8 0.000533820750235
9 0.001292898445918
10 0.000341646476388
11 -0.000176585207517
12 -0.000165061268871
13 0.000000021087629
14 -0.000000079396329
15 -0.000173014575517
16 0.99978917438542
17 0.008604375176244
18 -0.009800239851017
19 -0.000000612846993
20 0.000026018963795
21 -0.000022713282067
22 0.000000747731343
23 0.000078852644473
24 0.000658167581062
25 -0.000805618337763
26 0.000232024513718
27 0.000573593824045
28 -0.000000035409998
29 -0.000000114051529
30 0.000096931908813
31 -0.000563872605603
32 0.001545413475796
33 -0.000000124775877
34 0.000537480406560
35 0.000051739354653
36 -0.000609226124842
37 0.001500431650184
38 -0.000000135487754
39 -0.000433677533454
40 0.000351377809333
41 0.000279953410089
42 0.000107362837581
43 -0.000000093227328
44 0.000161866527828
45 0.000100874929696
46 0.000034983930396
47 -0.000033513035091
48 0.000000001920463
49 0.000002683975432
50 -0.000017575733209
 Sym=      3.1
 Ene=      -1.0339
 Spin= Alpha
 Occup=    2.000000
1 -0.019223082764961
2 0.57156994428129
3 -0.12900517904995
4 0.000022746028673
5 0.025896842877798
6 0.23732947551046
7 -0.000011284478248
8 -0.006132144981729
9 -0.062945688266326
10 -0.010033271806629
11 -0.010227530492963
12 0.020260802299592
13 0.000001126867927
14 0.000002767099674
15 0.011743629959798
16 -0.025589855260468
17 0.65345709087011
18 -0.19804708266224
19 -0.000024405635966
20 -0.062014586082548
21 -0.17713652878483
22 0.000013153922255
23 0.020419927714773
24 0.076128890142504
25 -0.006480168890959
26 -0.008844105233982
27 0.015324274124941
28 0.000001088540204
29 0.000002301286157
30 0.011334956239967
31 0.21161002500879
32 -0.096643337639108
33 0.000002327745451
34 -0.019256532611044
35 -0.007436769654447
36 0.20717500565170
37 -0.10300879022292
38 0.000002619487482
39 0.011763647360596
40 -0.017224700357822
41 0.16448684722830
42 -0.071111660510787
43 -0.000003107160665
44 0.011301305109756
45 0.010558899540871
46 -0.001581019925235
47 -0.003685108437133
48 -0.000000000671084
49 -0.000163675883072
50 0.000116103109667
 Sym=      4.1
 Ene=      -0.7678
 Spin= Alpha
 Occup=    2.000000
1 -0.012073113800937
2 0.51334771926456
3 -0.095276979071607
4 0.000063950705441
5 -0.23273498397434
6 -0.13213580806626
7 -0.000021271571584
8 0.057711599989854
9 0.032490548824030
10 -0.002783872876644
11 0.007778997859351
12 -0.004995124982707
13 -0.000003641717874
14 -0.000000635770824
15 0.003452337801126
16 0.011604692470397
17 -0.38161610537115
18 0.063481804784601
19 0.000040284644570
20 -0.14326433869143
21 -0.26407429736053
22 -0.000013424801237
23 0.031185143511380
24 0.060595659534261
25 0.001185401237407
26 -0.008779092806123
27 0.007593691568716
28 0.000001278991479
29 0.000000950130720
30 0.011835474058473
31 -0.35063892243069
32 0.14027246701680
33 -0.000003137665783
34 0.022408435929782
35 0.001015778914427
36 -0.28825775909477
37 0.10278872631947
38 -0.000002631852959
39 -0.015157888556089
40 0.010686952346009
41 0.49274961487684
42 -0.18493030001415
43 -0.000008712449400
44 0.025060717801162
45 0.015380512394875
46 -0.002367449448765
47 -0.004751693599866
48 -0.000000018922544
49 -0.000204125604660
50 0.000159566082844
 Sym=      5.1
 Ene=      -0.6258
 Spin= Alpha
 Occup=    2.000000
1 -0.001900233261429
2 -0.10091338838715
3 0.062802458020843
4 0.000031121193372
5 -0.35668355730342
6 -0.38522207416024
7 -0.000008820422183
8 0.099696783088341
9 0.10974131308492
10 -0.000887311470756
11 0.009993704479638
12 -0.009106393008882
13 -0.000006345679603
14 -0.000006127655097
15 -0.006052434869259
16 -0.002203772478982
17 0.015687797188911
18 0.018827791619652
19 -0.000005363149192
20 -0.14524290379434
21 0.57073858564582
22 0.000005115826934
23 0.024819929192864
24 -0.12946900027565
25 -0.001542804771923
26 0.013172904248757
27 -0.011630099476834
28 0.000001324675475
29 -0.000007903847389
30 -0.012475882028230
31 0.016057839242347
32 -0.000613377549008
33 -0.000000460638398
34 -0.002601499930899
35 0.009657553104933
36 0.50948595822496
37 -0.15546980768517
38 0.000004960961616
39 0.017519690127036
40 -0.011696591983557
41 0.39500920830725
42 -0.12125142789838
43 -0.000006673784859
44 0.014551618371244
45 0.004523087621056
46 0.004631552685511
47 0.004173138951577
48 0.000000003428518
49 -0.000129270189688
50 -0.000189450628824
 Sym=      6.1
 Ene=      -0.5814
 Spin= Alpha
 Occup=    2.000000
1 0.001635807448059
2 -0.040636695781710
3 -0.029919859951269
4 -0.000033435253574
5 0.096469947044285
6 0.30257327328530
7 0.000007175922036
8 -0.021382941677193
9 -0.092569387505811
10 0.002397876523859
11 -0.019807429921831
12 0.017409553397972
13 0.000003637446174
14 0.000004472255741
15 -0.022476410046306
16 0.000181656633084
17 0.029658517033945
18 -0.005586644344161
19 -0.000002696556071
20 -0.61112080766111
21 -0.084612325281790
22 0.000001703587342
23 0.12513701322304
24 0.012111082400754
25 -0.000362587710347
26 -0.017935411799526
27 0.018297999509873
28 0.000008212731863
29 0.000003304704399
30 -0.013777079125653
31 -0.59909889136156
32 0.16726273901155
33 -0.000004974492265
34 0.019762311863301
35 0.007128127505875
36 0.36372210500888
37 -0.091830276914510
38 0.000003198991260
39 0.000866585550368
40 -0.016455339907113
41 -0.28093451164061
42 0.066156265346108
43 0.000002141998493
44 -0.007522076275371
45 -0.001813177829101
46 0.009277083470451
47 0.008788331611827
48 -0.000000017462036
49 0.000051017283631
50 -0.000082129175511
 Sym=      7.1
 Ene=      -0.3917
 Spin= Alpha
 Occup=    2.000000
1 0.000000181702308
2 -0.000113188781186
3 -0.000014938567540
4 0.58194184795265
5 0.000028375523019
6 0.000023891111065
7 0.000517730740477
8 0.000014885240288
9 0.000008155585852
10 0.000007392712125
11 -0.000004199464971
12 -0.000003193247154
13 0.005925764198470
14 0.035476942165776
15 -0.000001415120573
16 0.000001153918985
17 0.000109009471213
18 -0.000000038247923
19 0.58812180179841
20 -0.000008660951606
21 -0.000022116277756
22 0.015306605601557
23 0.000001330457767
24 0.000021140021824
25 -0.000007009654102
26 0.000000553046778
27 0.000006456607324
28 -0.010756539440444
29 -0.032259522581141
30 -0.000002238227319
31 -0.000031558037355
32 0.000006643404380
33 0.013436573502093
34 0.000002672545727
35 0.000000158852086
36 -0.000019384163574
37 0.000007206404982
38 0.013605472378210
39 -0.000002890249161
40 0.000002773747038
41 0.000029532648943
42 -0.000011222055722
43 0.014508348952355
44 0.000006268969389
45 0.000002865067371
46 0.000005657652844
47 0.000001004854119
48 0.000975374546630
49 0.000000304301376
50 -0.000000138600469
 Sym=      8.1
 Ene=      -0.2296
 Spin= Alpha
 Occup=    1.381406
1 0.000019228215520
2 0.20140455261899
3 0.072473856266280
4 -0.000019170203687
5 0.43178484729308
6 -0.36246208736577
7 0.000004042936930
8 0.024248478134340
9 -0.022650347441973
10 -0.000349802498350
11 -0.000900320810112
12 0.001250123308463
13 0.000004590104372
14 0.000001218235370
15 -0.018768872239060
16 -0.001785593375274
17 -0.079791267371851
18 0.033226833792019
19 0.000041948390825
20 -0.012550129050414
21 0.091713560888681
22 0.000009518422929
23 -0.048783365784344
24 -0.019090383324160
25 0.000237587524532
26 -0.013977210705136
27 0.013739623180605
28 0.000000625750630
29 -0.000002065454556
30 -0.024642341856391
31 -0.10219073271737
32 0.017882977917180
33 0.000001378813365
34 -0.000149373610369
35 0.002615355793967
36 0.12789788258741
37 0.012530539236703
38 0.000000941670204
39 0.000203822659902
40 0.000792249311288
41 -0.14626670310746
42 0.019358926848207
43 0.000001203757490
44 0.005775526298195
45 -0.010007939175028
46 0.65112315030871
47 0.035058708940785
48 0.000000137545480
49 -0.000198961939857
50 -0.000026001763289
 Sym=      9.1
 Ene=      -0.0698
 Spin= Alpha
 Occup=    0.618594
1 -0.000820263397062
2 -0.25332401459732
3 -0.10898379391476
4 0.000016472265570
5 -0.49887178755799
6 0.42860357031771
7 -0.000005626234034
8 -0.037807772032953
9 0.012534066281036
10 0.003598004022102
11 -0.000892299159954
12 -0.002705704862148
13 -0.000005193515989
14 -0.000002040454498
15 0.024617183621480
16 0.001049936176791
17 0.079946344856064
18 -0.014185519089933
19 -0.000051774287025
20 0.015870124406987
21 -0.10573696995639
22 -0.000010241534103
23 0.062583141395029
24 0.004802468861546
25 -0.001241102678837
26 0.016047530915773
27 -0.014806428236935
28 -0.000000644013838
29 0.000002875898583
30 0.027137434786526
31 0.10753699539892
32 -0.019511585508165
33 -0.000001822910572
34 0.000484435102840
35 -0.003466987470525
36 -0.14447040811813
37 -0.003302009075398
38 -0.000001146412709
39 -0.000295478121808
40 0.000259836225616
41 0.14816793845102
42 -0.023047953425905
43 -0.000001148780805
44 -0.006281229997690
45 0.010361309474172
46 0.78141824211381
47 -0.043907011845721
48 0.000000199946188
49 0.000782762212159
50 -0.000984976588079
 Sym=     10.1
 Ene=       0.1724
 Spin= Alpha
 Occup=    0.000000
1 0.000019156858348
2 -0.000035567799849
3 -0.000390091305456
4 0.53310099226675
5 0.000167622900625
6 0.000052545501447
7 0.51994982601341
8 0.000187911236654
9 0.000072569536533
10 -0.000000303418641
11 -0.000003562932110
12 0.000003866350751
13 -0.015098083120573
14 -0.018333059696688
15 0.000003309640776
16 0.000014911108604
17 -0.000016348398229
18 -0.000319397992493
19 -0.50508108937240
20 0.000013076362575
21 -0.000114428328138
22 -0.53171306566936
23 0.000034341714784
24 -0.000064997007856
25 -0.000001826514063
26 -0.000004412461869
27 0.000006238975931
28 -0.007422049264774
29 -0.025917273050067
30 -0.000010266299268
31 0.000033384254585
32 -0.000054790426684
33 -0.018557762446075
34 -0.000002090660297
35 -0.000002630077284
36 0.000133021214494
37 0.000238268990393
38 -0.018425735200278
39 0.000002233302727
40 -0.000001372911294
41 0.000147766514236
42 0.000346405813980
43 0.024292729601855
44 0.000009646435090
45 0.000001010815083
46 -0.000009404085137
47 -0.000012802328188
48 0.004637035184732
49 -0.000000860170327
50 0.000001765181374
 Sym=     11.1
 Ene=       0.2111
 Spin= Alpha
 Occup=    0.000000
1 0.019374838896707
2 -0.067040051853191
3 -0.69424718245956
4 -0.000120889292787
5 0.13536546038728
6 0.11751903609751
7 -0.000282799916421
8 0.31031743660040
9 0.28213486188816
10 0.004163700713819
11 -0.005727598451206
12 0.001563897737387
13 0.000012359308981
14 0.000008571344979
15 -0.012748666584274
16 0.060156971512989
17 -0.14055563092535
18 -1.74295197645472
19 0.000137258137161
20 0.008469854010833
21 -0.25424824829256
22 0.000325361837740
23 -0.086932807706659
24 -0.49905582703303
25 0.021941309817215
26 -0.019933923374930
27 -0.002007386442285
28 0.000000881852681
29 0.000012644174302
30 -0.000789591364662
31 0.031816404374617
32 0.98625693703909
33 0.000004916063883
34 -0.017233634697058
35 -0.005447397022116
36 0.023608083055860
37 1.44645154155867
38 0.000004767792805
39 0.011797769373799
40 -0.016282416828792
41 -0.032887483476999
42 1.00440255049371
43 -0.000006503883887
44 0.008255737769043
45 0.012845637739525
46 -0.067840012890258
47 0.034193879145428
48 -0.000001448278146
49 0.000232185436497
50 0.005290211652516
 Sym=     12.1
 Ene=       0.2233
 Spin= Alpha
 Occup=    0.000000
1 0.038634405785314
2 -0.15438655663324
3 -1.02957534671269
4 -0.000166494525156
5 0.25391940610574
6 0.077068321813911
7 -0.000272851080869
8 0.54768125110218
9 0.39635212895910
10 0.010706259393091
11 -0.019852743052640
12 0.009146483659549
13 0.000014368345052
14 0.000005226918036
15 -0.004021349874920
16 -0.026370151985281
17 0.16545188214948
18 0.66123789575051
19 0.000035568933957
20 0.18897347247225
21 -0.013965731923558
22 0.000104378200776
23 0.33568834581356
24 0.22799097685607
25 -0.010834421624842
26 0.004729174549068
27 0.006105247075773
28 -0.000003724007219
29 0.000007099759826
30 -0.016002208758121
31 -0.055870060862680
32 -1.29732722543906
33 0.000000124184403
34 0.014704370765704
35 -0.001733831074757
36 0.011491909936205
37 -0.10666435135708
38 0.000000931448141
39 -0.006988947516598
40 0.001457295321159
41 0.087435201065587
42 1.78570721347485
43 -0.000012068823401
44 0.022341533215377
45 0.006944709771560
46 0.002280507968081
47 -0.017614116868801
48 -0.000000795687589
49 -0.001538815398468
50 -0.002467587639384
 Sym=     13.1
 Ene=       0.2713
 Spin= Alpha
 Occup=    0.000000
1 -0.022212222106555
2 0.064688493365316
3 0.75378627212878
4 0.000026355557473
5 -0.088987295769833
6 -0.038180308160155
7 0.000111053819942
8 -0.80363531516141
9 -0.056689445629483
10 -0.016979831831031
11 0.023423913537556
12 -0.006444081706525
13 -0.000006539183165
14 -0.000005123097890
15 0.019999910294426
16 0.007986250633841
17 -0.012879770480569
18 -0.085635421724920
19 0.000029992673960
20 0.38718096626594
21 -0.11858946810417
22 -0.000025696320102
23 1.39310500223302
24 -0.40754357018481
25 0.003967322991540
26 0.012163021538645
27 -0.016130344530185
28 -0.000012509793896
29 0.000002556987171
30 0.025929135545929
31 0.032087400158757
32 -1.77796463137219
33 0.000000843808221
34 0.019771382490213
35 0.012963937088513
36 -0.019547289569112
37 1.95666214743970
38 0.000003369025991
39 0.013551028906240
40 -0.023093281607274
41 0.065406254295641
42 -1.21541049042387
43 0.000002208610805
44 -0.017348678232261
45 -0.011368663790852
46 0.094287142990146
47 0.000859888497854
48 0.000001173773388
49 0.006837613638548
50 -0.009269753223696
 Sym=     14.1
 Ene=       0.4627
 Spin= Alpha
 Occup=    0.000000
1 -0.040994940451516
2 0.18919983853815
3 4.12623257627815
4 -0.000116238928431
5 0.19712033835272
6 0.20167546164533
7 0.000266868723545
8 1.13113645752899
9 2.86839324942330
10 -0.034723252948660
11 -0.027087303045165
12 0.061810555993826
13 -0.000012237210129
14 -0.000004183817719
15 0.043525051120375
16 0.084537840378207
17 0.085108999701484
18 -4.02693936932674
19 -0.000122587982876
20 0.007195928559936
21 0.049998623271162
22 0.000245815184897
23 0.89092620829842
24 3.51000248166879
25 0.060844754999799
26 -0.031581658384469
27 -0.029263096615330
28 -0.000000861152056
29 0.000004259361170
30 -0.023933127781815
31 -0.28921646245537
32 -0.27891851360703
33 -0.000003134041423
34 -0.023474951704203
35 0.004917219139731
36 -0.23530873731859
37 -0.68294265858371
38 -0.000001119536501
39 0.015331791149877
40 0.003282410283864
41 -0.085923589829243
42 1.17499220452591
43 0.000008337145253
44 -0.021273408062212
45 -0.004374666759880
46 0.16840221651980
47 -0.099941116290834
48 0.000003468872633
49 0.016345951299349
50 -0.000322087998202
 Sym=     15.1
 Ene=       0.5849
 Spin= Alpha
 Occup=    0.000000
1 0.19404634401841
2 0.63193866929458
3 -1.36440768677603
4 0.000106024658223
5 0.10280293115817
6 0.47878403004437
7 -0.000235920699823
8 -0.46846297319755
9 -1.64040912860461
10 -0.072311353978066
11 0.038502034864672
12 0.033809319113394
13 -0.000024388920974
14 -0.000002212531567
15 0.11979832510406
16 0.11075764828254
17 0.56859523843697
18 0.67080726186010
19 0.000115874492826
20 -0.27239564852677
21 -0.68890109927382
22 -0.000087189041653
23 0.30403208362022
24 0.30264427988166
25 -0.034483646715404
26 -0.000073989787094
27 0.034557636502498
28 0.000008723935982
29 -0.000011885222045
30 -0.018513389984521
31 -0.41812987086992
32 0.41952908693989
33 0.000006206903626
34 0.022725764131713
35 -0.003201088582758
36 0.21932153719283
37 -0.017696449515304
38 0.000004827786980
39 -0.003569053269752
40 0.048095470456864
41 0.68446136204173
42 -1.03856245599549
43 0.000001417792326
44 -0.057549679149988
45 -0.086521959157900
46 0.28984219043717