
    -----------------------------------------------------------------------
          Psi4: An Open-Source Ab Initio Electronic Structure Package
                               Psi4 1.3.2 release

                         Git: Rev {HEAD} ecbda83 


    R. M. Parrish, L. A. Burns, D. G. A. Smith, A. C. Simmonett,
    A. E. DePrince III, E. G. Hohenstein, U. Bozkaya, A. Yu. Sokolov,
    R. Di Remigio, R. M. Richard, J. F. Gonthier, A. M. James,
    H. R. McAlexander, A. Kumar, M. Saitow, X. Wang, B. P. Pritchard,
    P. Verma, H. F. Schaefer III, K. Patkowski, R. A. King, E. F. Valeev,
    F. A. Evangelista, J. M. Turney, T. D. Crawford, and C. D. Sherrill,
    J. Chem. Theory Comput. 13(7) pp 3185--3197 (2017).
    (doi: 10.1021/acs.jctc.7b00174)


                         Additional Contributions by
    P. Kraus, H. Kruse, M. H. Lechner, M. C. Schieber, R. A. Shaw,
    A. Alenaizan, R. Galvelis, Z. L. Glick, S. Lehtola, and J. P. Misiewicz

    -----------------------------------------------------------------------


    Psi4 started on: Friday, 23 August 2019 03:34PM

    Process ID: 18933
    Host:       blueslogin2
    PSIDATADIR: /home/elliott/miniconda2/envs/pacc-env-mini/share/psi4
    Memory:     500.0 MiB
    Threads:    1
    
  ==> Input File <==

--------------------------------------------------------------------------
#! 
memory 1 GB

molecule {

0 1
C  
H  1    R1 
H  1    R2  2    A2 
H  1    R3  2    A3  3    D3 
H  1    R4  2    A4  3    D4 
R1   =   1.093296
R2   =   1.093296
A2   = 109.471000
R3   =   1.093296
A3   = 109.471000
D3   = 120.000000
R4   =   1.093296
A4   = 109.471000
D4   = 240.000000
}
set basis cc-pvdz
set scf_type pk
set reference rks
set mp2_type conv
optimize('B3LYP')
--------------------------------------------------------------------------

  Memory set to 953.674 MiB by Python driver.
gradient() will perform analytic gradient computation.

*** tstart() called on blueslogin2
*** at Fri Aug 23 15:34:11 2019

   => Loading Basis Set <=

    Name: CC-PVDZ
    Role: ORBITAL
    Keyword: BASIS
    atoms 1   entry C          line   138 file /home/elliott/miniconda2/envs/pacc-env-mini/share/psi4/basis/cc-pvdz.gbs 
    atoms 2-5 entry H          line    22 file /home/elliott/miniconda2/envs/pacc-env-mini/share/psi4/basis/cc-pvdz.gbs 


         ---------------------------------------------------------
                                   SCF
               by Justin Turney, Rob Parrish, Andy Simmonett
                          and Daniel G. A. Smith
                              RKS Reference
                        1 Threads,    953 MiB Core
         ---------------------------------------------------------

  ==> Geometry <==

    Molecular point group: cs
    Full point group: C3v

    Geometry (in Angstrom), charge = 0, multiplicity = 1:

       Center              X                  Y                   Z               Mass       
    ------------   -----------------  -----------------  -----------------  -----------------
         C            0.000000000000    -0.000000748601     0.000000000000    12.000000000000
         H            0.000000000000     1.093295251399     0.000000000000     1.007825032230
         H           -0.515385378636    -0.364428779313     0.892673661276     1.007825032230
         H           -0.515385378636    -0.364428779313    -0.892673661276     1.007825032230
         H            1.030770757272    -0.364428779313     0.000000000000     1.007825032230

  Running in cs symmetry.

  Rotational constants: A =      5.24768  B =      5.24768  C =      5.24766 [cm^-1]
  Rotational constants: A = 157321.61603  B = 157321.61603  C = 157320.97347 [MHz]
  Nuclear repulsion =   13.394885081962046

  Charge       = 0
  Multiplicity = 1
  Electrons    = 10
  Nalpha       = 5
  Nbeta        = 5

  ==> Algorithm <==

  SCF Algorithm Type is PK.
  DIIS enabled.
  MOM disabled.
  Fractional occupation disabled.
  Guess Type is SAD.
  Energy threshold   = 1.00e-08
  Density threshold  = 1.00e-08
  Integral threshold = 0.00e+00

  ==> Primary Basis <==

  Basis Set: CC-PVDZ
    Blend: CC-PVDZ
    Number of shells: 18
    Number of basis function: 34
    Number of Cartesian functions: 35
    Spherical Harmonics?: true
    Max angular momentum: 2

  ==> DFT Potential <==

   => Composite Functional: B3LYP <= 

    B3LYP Hyb-GGA Exchange-Correlation Functional

    P. J. Stephens, F. J. Devlin, C. F. Chabalowski, and M. J. Frisch, J. Phys. Chem. 98, 11623 (1994)

    Deriv               =              1
    GGA                 =           TRUE
    Meta                =          FALSE

    Exchange Hybrid     =           TRUE
    MP2 Hybrid          =          FALSE

   => Exchange Functionals <=

    0.0800   Slater exchange
    0.7200         Becke 88

   => Exact (HF) Exchange <=

    0.2000               HF 

   => Correlation Functionals <=

    0.1900   Vosko, Wilk & Nusair (VWN5_RPA)
    0.8100   Lee, Yang & Parr

   => Molecular Quadrature <=

    Radial Scheme          =       TREUTLER
    Pruning Scheme         =           FLAT
    Nuclear Scheme         =       TREUTLER

    BS radius alpha        =              1
    Pruning alpha          =              1
    Radial Points          =             75
    Spherical Points       =            302
    Total Points           =         111415
    Total Blocks           =            923
    Max Points             =            256
    Max Functions          =             34

  ==> Pre-Iterations <==

   -------------------------------------------------------
    Irrep   Nso     Nmo     Nalpha   Nbeta   Ndocc  Nsocc
   -------------------------------------------------------
     A'        23      23       0       0       0       0
     A"        11      11       0       0       0       0
   -------------------------------------------------------
    Total      34      34       5       5       5       0
   -------------------------------------------------------

  ==> Integral Setup <==

  Using in-core PK algorithm.
   Calculation information:
      Number of atoms:                   5
      Number of AO shells:              18
      Number of primitives:             42
      Number of atomic orbitals:        35
      Number of basis functions:        34

      Integral cutoff                 1.00e-12
      Number of threads:                 1

  Performing in-core PK
  Using 354620 doubles for integral storage.
  We computed 14706 shell quartets total.
  Whereas there are 14706 unique shell quartets.

  ==> DiskJK: Disk-Based J/K Matrices <==

    J tasked:                  Yes
    K tasked:                  Yes
    wK tasked:                  No
    Memory [MiB]:              605
    Schwarz Cutoff:          1E-12

    OpenMP threads:              1

  Cached 100.0% of DFT collocation blocks in 0.107 [GiB].

  Minimum eigenvalue in the overlap matrix is 2.3252410225E-02.
  Using Symmetric Orthogonalization.

  SCF Guess: Superposition of Atomic Densities via on-the-fly atomic UHF.

  ==> Iterations <==

                        Total Energy        Delta E     RMS |[F,P]|

   @RKS iter SAD:   -40.07938216811579   -4.00794e+01   0.00000e+00 
   @RKS iter   1:   -40.31984489181240   -2.40463e-01   2.39191e-02 DIIS
   @RKS iter   2:   -40.26188919548265    5.79557e-02   2.55519e-02 DIIS
   @RKS iter   3:   -40.51600725771813   -2.54118e-01   7.23532e-04 DIIS
   @RKS iter   4:   -40.51623746895715   -2.30211e-04   3.68366e-05 DIIS
   @RKS iter   5:   -40.51623790752358   -4.38566e-07   2.61890e-06 DIIS
   @RKS iter   6:   -40.51623790967972   -2.15614e-09   1.95371e-07 DIIS
   @RKS iter   7:   -40.51623790969354   -1.38201e-11   5.47901e-09 DIIS
  Energy and wave function converged.


  ==> Post-Iterations <==

    Orbital Energies [Eh]
    ---------------------

    Doubly Occupied:                                                      

       1Ap   -10.172016     2Ap    -0.692325     3Ap    -0.389545  
       1App   -0.389545     4Ap    -0.389544  

    Virtual:                                                              

       5Ap     0.074159     6Ap     0.144339     7Ap     0.144339  
       2App    0.144339     8Ap     0.413369     9Ap     0.413370  
       3App    0.413371    10Ap     0.653092    11Ap     0.653093  
       4App    0.653093    12Ap     0.684563     5App    0.901498  
      13Ap     0.901498    14Ap     1.042272     6App    1.419638  
       7App    1.419640    15Ap     1.419641    16Ap     1.616417  
       8App    1.616417    17Ap     1.616421    18Ap     1.926533  
      19Ap     1.926539     9App    1.926539    20Ap     2.243586  
      10App    2.243587    21Ap     2.409529    22Ap     2.439545  
      11App    2.439545    23Ap     2.439547  

    Final Occupation by Irrep:
             Ap   App 
    DOCC [     4,    1 ]

  @RKS Final Energy:   -40.51623790969354

   => Energetics <=

    Nuclear Repulsion Energy =             13.3948850819620464
    One-Electron Energy =                 -79.7385116011999031
    Two-Electron Energy =                  31.4132994715381315
    DFT Exchange-Correlation Energy =      -5.5859108619938169
    Empirical Dispersion Energy =           0.0000000000000000
    VV10 Nonlocal Energy =                  0.0000000000000000
    Total Energy =                        -40.5162379096935439

Computation Completed


Properties will be evaluated at   0.000000,   0.000000,   0.000000 [a0]

Properties computed using the SCF density matrix

  Nuclear Dipole Moment: [e a0]
     X:    -0.0000      Y:     0.0000      Z:     0.0000

  Electronic Dipole Moment: [e a0]
     X:     0.0000      Y:    -0.0000      Z:     0.0000

  Dipole Moment: [e a0]
     X:     0.0000      Y:     0.0000      Z:     0.0000     Total:     0.0000

  Dipole Moment: [D]
     X:     0.0000      Y:     0.0000      Z:     0.0000     Total:     0.0000


*** tstop() called on blueslogin2 at Fri Aug 23 15:34:15 2019
Module time:
	user time   =       3.50 seconds =       0.06 minutes
	system time =       0.16 seconds =       0.00 minutes
	total time  =          4 seconds =       0.07 minutes
Total time:
	user time   =       3.50 seconds =       0.06 minutes
	system time =       0.16 seconds =       0.00 minutes
	total time  =          4 seconds =       0.07 minutes

*** tstart() called on blueslogin2
*** at Fri Aug 23 15:34:15 2019


         ------------------------------------------------------------
                                   SCF GRAD                          
                          Rob Parrish, Justin Turney,                
                       Andy Simmonett, and Alex Sokolov              
         ------------------------------------------------------------

  ==> Geometry <==

    Molecular point group: cs
    Full point group: C3v

    Geometry (in Angstrom), charge = 0, multiplicity = 1:

       Center              X                  Y                   Z               Mass       
    ------------   -----------------  -----------------  -----------------  -----------------
         C            0.000000000000    -0.000000748601     0.000000000000    12.000000000000
         H            0.000000000000     1.093295251399     0.000000000000     1.007825032230
         H           -0.515385378636    -0.364428779313     0.892673661276     1.007825032230
         H           -0.515385378636    -0.364428779313    -0.892673661276     1.007825032230
         H            1.030770757272    -0.364428779313     0.000000000000     1.007825032230

  Nuclear repulsion =   13.394885081962046

  ==> Basis Set <==

  Basis Set: CC-PVDZ
    Blend: CC-PVDZ
    Number of shells: 18
    Number of basis function: 34
    Number of Cartesian functions: 35
    Spherical Harmonics?: true
    Max angular momentum: 2

  ==> DirectJKGrad: Integral-Direct SCF Gradients <==

    Gradient:                    1
    J tasked:                  Yes
    K tasked:                  Yes
    wK tasked:                  No
    Integrals threads:           1
    Schwarz Cutoff:          0E+00

  ==> DFT Potential <==

   => Composite Functional: B3LYP <= 

    B3LYP Hyb-GGA Exchange-Correlation Functional

    P. J. Stephens, F. J. Devlin, C. F. Chabalowski, and M. J. Frisch, J. Phys. Chem. 98, 11623 (1994)

    Deriv               =              1
    GGA                 =           TRUE
    Meta                =          FALSE

    Exchange Hybrid     =           TRUE
    MP2 Hybrid          =          FALSE

   => Exchange Functionals <=

    0.0800   Slater exchange
    0.7200         Becke 88

   => Exact (HF) Exchange <=

    0.2000               HF 

   => Correlation Functionals <=

    0.1900   Vosko, Wilk & Nusair (VWN5_RPA)
    0.8100   Lee, Yang & Parr

   => Molecular Quadrature <=

    Radial Scheme          =       TREUTLER
    Pruning Scheme         =           FLAT
    Nuclear Scheme         =       TREUTLER

    BS radius alpha        =              1
    Pruning alpha          =              1
    Radial Points          =             75
    Spherical Points       =            302
    Total Points           =         111415
    Total Blocks           =            923
    Max Points             =            256
    Max Functions          =             34


  -Total Gradient:
     Atom            X                  Y                   Z
    ------   -----------------  -----------------  -----------------
       1       -0.000001484142     0.000000341628     0.000000000000
       2        0.000000502956    -0.004457469794     0.000000000000
       3        0.002100832599     0.001486290476    -0.003638864830
       4        0.002100832599     0.001486290476     0.003638864830
       5       -0.004202307984     0.001485226052     0.000000000000


*** tstop() called on blueslogin2 at Fri Aug 23 15:34:16 2019
Module time:
	user time   =       0.84 seconds =       0.01 minutes
	system time =       0.01 seconds =       0.00 minutes
	total time  =          1 seconds =       0.02 minutes
Total time:
	user time   =       4.35 seconds =       0.07 minutes
	system time =       0.17 seconds =       0.00 minutes
	total time  =          5 seconds =       0.08 minutes

			-----------------------------------------
			 OPTKING 2.0: for geometry optimizations 
			  - R.A. King,  Bethel University        
			-----------------------------------------

	Internal coordinates to be generated automatically.
	Detected frag 1 with atoms:  1 2 3 4 5
	---Fragment 1 Bond Connectivity---
	 1 : 2 3 4 5
	 2 : 1
	 3 : 1
	 4 : 1
	 5 : 1

	---Fragment 1 Geometry and Gradient---
	 C           0.0000000000       -0.0000014147        0.0000000000
	 H           0.0000000000        2.0660285994        0.0000000000
	 H          -0.9739372147       -0.6886705851        1.6869087392
	 H          -0.9739372147       -0.6886705851       -1.6869087392
	 H           1.9478744294       -0.6886705851        0.0000000000
	            -0.0000014841        0.0000003416        0.0000000000
	             0.0000005030       -0.0044574698        0.0000000000
	             0.0021008326        0.0014862905       -0.0036388648
	             0.0021008326        0.0014862905        0.0036388648
	            -0.0042023080        0.0014852261        0.0000000000

	Previous optimization step data not found.  Starting new optimization.

	---Fragment 1 Intrafragment Coordinates---
	 - Coordinate -           - BOHR/RAD -       - ANG/DEG -
	 R(1,2)           =         2.066030	       1.093296
	 R(1,3)           =         2.066030	       1.093296
	 R(1,4)           =         2.066030	       1.093296
	 R(1,5)           =         2.066030	       1.093296
	 B(2,1,3)         =         1.910629	     109.471000
	 B(2,1,4)         =         1.910629	     109.471000
	 B(2,1,5)         =         1.910629	     109.471000
	 B(3,1,4)         =         1.910637	     109.471441
	 B(3,1,5)         =         1.910637	     109.471441
	 B(4,1,5)         =         1.910637	     109.471441

	Current energy   :       -40.5162379097

	Generating empirical Hessian (Schlegel '84) for each fragment.
	Taking RFO optimization step.
	Going to follow RFO solution 1.
	Using RFO vector 1.
	Norm of target step-size    0.02587
	Projected energy change by RFO approximation:        -0.0002304282

	Back-transformation to cartesian coordinates...
	Successfully converged to displaced geometry.

	--- Internal Coordinate Step in ANG or DEG, aJ/ANG or AJ/DEG ---
	 ---------------------------------------------------------------------------
	   Coordinate                Previous        Force       Change         New 
	   ----------                --------       ------       ------       ------
	    1 R(1,2)          =      1.093296     0.036725     0.006846     1.100142
	    2 R(1,3)          =      1.093296     0.036720     0.006845     1.100141
	    3 R(1,4)          =      1.093296     0.036720     0.006845     1.100141
	    4 R(1,5)          =      1.093296     0.036717     0.006844     1.100140
	    5 B(2,1,3)        =    109.471000     0.000000     0.000027   109.471027
	    6 B(2,1,4)        =    109.471000     0.000000     0.000027   109.471027
	    7 B(2,1,5)        =    109.471000     0.000000     0.000162   109.471162
	    8 B(3,1,4)        =    109.471441    -0.000000    -0.000305   109.471137
	    9 B(3,1,5)        =    109.471441     0.000000     0.000045   109.471486
	   10 B(4,1,5)        =    109.471441     0.000000     0.000045   109.471486
	 ---------------------------------------------------------------------------
	Successfully symmetrized geometry.

  ==> Convergence Check <==

  Measures of convergence in internal coordinates in au.
  Criteria marked as inactive (o), active & met (*), and active & unmet ( ).
  --------------------------------------------------------------------------------------------- ~
   Step     Total Energy     Delta E     MAX Force     RMS Force      MAX Disp      RMS Disp    ~
  --------------------------------------------------------------------------------------------- ~
    Convergence Criteria    1.00e-06 *    3.00e-04 *             o    1.20e-03 *             o  ~
  --------------------------------------------------------------------------------------------- ~
      1     -40.51623791   -4.05e+01      4.46e-03      2.82e-03 o    1.29e-02      8.18e-03 o  ~
  ---------------------------------------------------------------------------------------------

	Writing optimization data to binary file.
	Structure for next step:
	Cartesian Geometry (in Angstrom)
	    C     0.0000013272  -0.0000002022   0.0000000000
	    H    -0.0000003102   1.1001414987   0.0000000000
	    H    -0.5186127484  -0.3667110540   0.8982607137
	    H    -0.5186127484  -0.3667110540  -0.8982607137
	    H     1.0372244798  -0.3667110235   0.0000000000
			--------------------------
			 OPTKING Finished Execution 
			--------------------------

    Structure for next step:
    Molecular point group: cs
    Full point group: Cs

    Geometry (in Angstrom), charge = 0, multiplicity = 1:

    C       
    H             1          R1
    H             1          R2      2          A2
    H             1          R3      2          A3      3          D3
    H             1          R4      2          A4      3          D4

    A2        =  109.4710267014
    A3        =  109.4710267014
    A4        =  109.4711615007
    D3        =  119.9996597135
    D4        = -120.0001701433
    R1        =    1.1001417052
    R2        =    1.1001407763
    R3        =    1.1001407763
    R4        =    1.1001403112

gradient() will perform analytic gradient computation.

*** tstart() called on blueslogin2
*** at Fri Aug 23 15:34:16 2019

   => Loading Basis Set <=

    Name: CC-PVDZ
    Role: ORBITAL
    Keyword: BASIS
    atoms 1   entry C          line   138 file /home/elliott/miniconda2/envs/pacc-env-mini/share/psi4/basis/cc-pvdz.gbs 
    atoms 2-5 entry H          line    22 file /home/elliott/miniconda2/envs/pacc-env-mini/share/psi4/basis/cc-pvdz.gbs 


         ---------------------------------------------------------
                                   SCF
               by Justin Turney, Rob Parrish, Andy Simmonett
                          and Daniel G. A. Smith
                              RKS Reference
                        1 Threads,    953 MiB Core
         ---------------------------------------------------------

  ==> Geometry <==

    Molecular point group: cs
    Full point group: Cs

    Geometry (in Angstrom), charge = 0, multiplicity = 1:

       Center              X                  Y                   Z               Mass       
    ------------   -----------------  -----------------  -----------------  -----------------
         C            0.000000417188    -0.000000576858     0.000000000000    12.000000000000
         H            0.000000417188     1.100141128344     0.000000000000     1.007825032230
         H           -0.518614206315    -0.366710658187     0.898260717257     1.007825032230
         H           -0.518614206315    -0.366710658187    -0.898260717257     1.007825032230
         H            1.037223028054    -0.366712943422     0.000000000000     1.007825032230

  Running in cs symmetry.

  Rotational constants: A =      5.18259  B =      5.18258  C =      5.18257 [cm^-1]
  Rotational constants: A = 155370.14316  B = 155369.74033  C = 155369.62798 [MHz]
  Nuclear repulsion =   13.311544352138261

  Charge       = 0
  Multiplicity = 1
  Electrons    = 10
  Nalpha       = 5
  Nbeta        = 5

  ==> Algorithm <==

  SCF Algorithm Type is PK.
  DIIS enabled.
  MOM disabled.
  Fractional occupation disabled.
  Guess Type is READ.
  Energy threshold   = 1.00e-08
  Density threshold  = 1.00e-08
  Integral threshold = 0.00e+00

  ==> Primary Basis <==

  Basis Set: CC-PVDZ
    Blend: CC-PVDZ
    Number of shells: 18
    Number of basis function: 34
    Number of Cartesian functions: 35
    Spherical Harmonics?: true
    Max angular momentum: 2

  ==> DFT Potential <==

   => Composite Functional: B3LYP <= 

    B3LYP Hyb-GGA Exchange-Correlation Functional

    P. J. Stephens, F. J. Devlin, C. F. Chabalowski, and M. J. Frisch, J. Phys. Chem. 98, 11623 (1994)

    Deriv               =              1
    GGA                 =           TRUE
    Meta                =          FALSE

    Exchange Hybrid     =           TRUE
    MP2 Hybrid          =          FALSE

   => Exchange Functionals <=

    0.0800   Slater exchange
    0.7200         Becke 88

   => Exact (HF) Exchange <=

    0.2000               HF 

   => Correlation Functionals <=

    0.1900   Vosko, Wilk & Nusair (VWN5_RPA)
    0.8100   Lee, Yang & Parr

   => Molecular Quadrature <=

    Radial Scheme          =       TREUTLER
    Pruning Scheme         =           FLAT
    Nuclear Scheme         =       TREUTLER

    BS radius alpha        =              1
    Pruning alpha          =              1
    Radial Points          =             75
    Spherical Points       =            302
    Total Points           =         111415
    Total Blocks           =            927
    Max Points             =            255
    Max Functions          =             34

   => Loading Basis Set <=

    Name: CC-PVDZ
    Role: ORBITAL
    Keyword: BASIS
    atoms 1   entry C          line   138 file /home/elliott/miniconda2/envs/pacc-env-mini/share/psi4/basis/cc-pvdz.gbs 
    atoms 2-5 entry H          line    22 file /home/elliott/miniconda2/envs/pacc-env-mini/share/psi4/basis/cc-pvdz.gbs 

  Reading orbitals from file 180, no projection.

  ==> Pre-Iterations <==

   -------------------------------------------------------
    Irrep   Nso     Nmo     Nalpha   Nbeta   Ndocc  Nsocc
   -------------------------------------------------------
     A'        23      23       0       0       0       0
     A"        11      11       0       0       0       0
   -------------------------------------------------------
    Total      34      34       5       5       5       0
   -------------------------------------------------------

  ==> Integral Setup <==

  Using in-core PK algorithm.
   Calculation information:
      Number of atoms:                   5
      Number of AO shells:              18
      Number of primitives:             42
      Number of atomic orbitals:        35
      Number of basis functions:        34

      Integral cutoff                 1.00e-12
      Number of threads:                 1

  Performing in-core PK
  Using 354620 doubles for integral storage.
  We computed 14706 shell quartets total.
  Whereas there are 14706 unique shell quartets.

  ==> DiskJK: Disk-Based J/K Matrices <==

    J tasked:                  Yes
    K tasked:                  Yes
    wK tasked:                  No
    Memory [MiB]:              605
    Schwarz Cutoff:          1E-12

    OpenMP threads:              1

  Cached 100.0% of DFT collocation blocks in 0.107 [GiB].

  Minimum eigenvalue in the overlap matrix is 2.3528757402E-02.
  Using Symmetric Orthogonalization.

  SCF Guess: Orbitals guess was supplied from a previous computation.

  ==> Iterations <==

                        Total Energy        Delta E     RMS |[F,P]|

   @RKS iter   0:   -40.50883742577411   -4.05088e+01   6.83657e-04 
   @RKS iter   1:   -40.51633437023864   -7.49694e-03   1.85346e-04 DIIS
   @RKS iter   2:   -40.51633058050213    3.78974e-06   2.29033e-04 DIIS
   @RKS iter   3:   -40.51634872159500   -1.81411e-05   6.47675e-06 DIIS
   @RKS iter   4:   -40.51634873814474   -1.65497e-08   3.49907e-07 DIIS
   @RKS iter   5:   -40.51634873818660   -4.18581e-11   3.89305e-09 DIIS
  Energy and wave function converged.


  ==> Post-Iterations <==

    Orbital Energies [Eh]
    ---------------------

    Doubly Occupied:                                                      

       1Ap   -10.174732     2Ap    -0.690216     3Ap    -0.388423  
       1App   -0.388422     4Ap    -0.388421  

    Virtual:                                                              

       5Ap     0.072970     6Ap     0.142806     7Ap     0.142806  
       2App    0.142806     8Ap     0.413720     9Ap     0.413722  
       3App    0.413722    10Ap     0.649846    11Ap     0.649846  
       4App    0.649847    12Ap     0.676813     5App    0.900811  
      13Ap     0.900811    14Ap     1.041465     6App    1.414680  
      15Ap     1.414681     7App    1.414682    16Ap     1.609926  
       8App    1.609928    17Ap     1.609929    18Ap     1.920432  
       9App    1.920435    19Ap     1.920439    10App    2.232763  
      20Ap     2.232763    21Ap     2.391030    22Ap     2.426704  
      23Ap     2.426705    11App    2.426705  

    Final Occupation by Irrep:
             Ap   App 
    DOCC [     4,    1 ]

  @RKS Final Energy:   -40.51634873818660

   => Energetics <=

    Nuclear Repulsion Energy =             13.3115443521382613
    One-Electron Energy =                 -79.5829087831843651
    Two-Electron Energy =                  31.3332395257210834
    DFT Exchange-Correlation Energy =      -5.5782238328615774
    Empirical Dispersion Energy =           0.0000000000000000
    VV10 Nonlocal Energy =                  0.0000000000000000
    Total Energy =                        -40.5163487381866005

Computation Completed


Properties will be evaluated at   0.000000,   0.000000,   0.000000 [a0]

Properties computed using the SCF density matrix

  Nuclear Dipole Moment: [e a0]
     X:    -0.0000      Y:     0.0000      Z:     0.0000

  Electronic Dipole Moment: [e a0]
     X:     0.0000      Y:    -0.0000      Z:     0.0000

  Dipole Moment: [e a0]
     X:     0.0000      Y:    -0.0000      Z:     0.0000     Total:     0.0000

  Dipole Moment: [D]
     X:     0.0000      Y:    -0.0000      Z:     0.0000     Total:     0.0000


*** tstop() called on blueslogin2 at Fri Aug 23 15:34:18 2019
Module time:
	user time   =       2.59 seconds =       0.04 minutes
	system time =       0.11 seconds =       0.00 minutes
	total time  =          2 seconds =       0.03 minutes
Total time:
	user time   =       6.95 seconds =       0.12 minutes
	system time =       0.29 seconds =       0.00 minutes
	total time  =          7 seconds =       0.12 minutes

*** tstart() called on blueslogin2
*** at Fri Aug 23 15:34:18 2019


         ------------------------------------------------------------
                                   SCF GRAD                          
                          Rob Parrish, Justin Turney,                
                       Andy Simmonett, and Alex Sokolov              
         ------------------------------------------------------------

  ==> Geometry <==

    Molecular point group: cs
    Full point group: Cs

    Geometry (in Angstrom), charge = 0, multiplicity = 1:

       Center              X                  Y                   Z               Mass       
    ------------   -----------------  -----------------  -----------------  -----------------
         C            0.000000417188    -0.000000576858     0.000000000000    12.000000000000
         H            0.000000417188     1.100141128344     0.000000000000     1.007825032230
         H           -0.518614206315    -0.366710658187     0.898260717257     1.007825032230
         H           -0.518614206315    -0.366710658187    -0.898260717257     1.007825032230
         H            1.037223028054    -0.366712943422     0.000000000000     1.007825032230

  Nuclear repulsion =   13.311544352138261

  ==> Basis Set <==

  Basis Set: CC-PVDZ
    Blend: CC-PVDZ
    Number of shells: 18
    Number of basis function: 34
    Number of Cartesian functions: 35
    Spherical Harmonics?: true
    Max angular momentum: 2

  ==> DirectJKGrad: Integral-Direct SCF Gradients <==

    Gradient:                    1
    J tasked:                  Yes
    K tasked:                  Yes
    wK tasked:                  No
    Integrals threads:           1
    Schwarz Cutoff:          0E+00

  ==> DFT Potential <==

   => Composite Functional: B3LYP <= 

    B3LYP Hyb-GGA Exchange-Correlation Functional

    P. J. Stephens, F. J. Devlin, C. F. Chabalowski, and M. J. Frisch, J. Phys. Chem. 98, 11623 (1994)

    Deriv               =              1
    GGA                 =           TRUE
    Meta                =          FALSE

    Exchange Hybrid     =           TRUE
    MP2 Hybrid          =          FALSE

   => Exchange Functionals <=

    0.0800   Slater exchange
    0.7200         Becke 88

   => Exact (HF) Exchange <=

    0.2000               HF 

   => Correlation Functionals <=

    0.1900   Vosko, Wilk & Nusair (VWN5_RPA)
    0.8100   Lee, Yang & Parr

   => Molecular Quadrature <=

    Radial Scheme          =       TREUTLER
    Pruning Scheme         =           FLAT
    Nuclear Scheme         =       TREUTLER

    BS radius alpha        =              1
    Pruning alpha          =              1
    Radial Points          =             75
    Spherical Points       =            302
    Total Points           =         111415
    Total Blocks           =            927
    Max Points             =            255
    Max Functions          =             34


  -Total Gradient:
     Atom            X                  Y                   Z
    ------   -----------------  -----------------  -----------------
       1       -0.000000786487     0.000000210647     0.000000000000
       2        0.000000338495     0.000146260661     0.000000000000
       3       -0.000069277909    -0.000048168200     0.000119261338
       4       -0.000069277909    -0.000048168200    -0.000119261338
       5        0.000137250870    -0.000049039795     0.000000000000


*** tstop() called on blueslogin2 at Fri Aug 23 15:34:19 2019
Module time:
	user time   =       0.83 seconds =       0.01 minutes
	system time =       0.02 seconds =       0.00 minutes
	total time  =          1 seconds =       0.02 minutes
Total time:
	user time   =       7.78 seconds =       0.13 minutes
	system time =       0.31 seconds =       0.01 minutes
	total time  =          8 seconds =       0.13 minutes

			-----------------------------------------
			 OPTKING 2.0: for geometry optimizations 
			  - R.A. King,  Bethel University        
			-----------------------------------------

	Previous internal coordinate definitions found.
	---Fragment 1 Geometry and Gradient---
	 C           0.0000007884       -0.0000010901        0.0000000000
	 H           0.0000007884        2.0789654319        0.0000000000
	 H          -0.9800388147       -0.6929827113        1.6974667449
	 H          -0.9800388147       -0.6929827113       -1.6974667449
	 H           1.9600674540       -0.6929870297        0.0000000000
	            -0.0000007865        0.0000002106        0.0000000000
	             0.0000003385        0.0001462607        0.0000000000
	            -0.0000692779       -0.0000481682        0.0001192613
	            -0.0000692779       -0.0000481682       -0.0001192613
	             0.0001372509       -0.0000490398        0.0000000000

	---Fragment 1 Intrafragment Coordinates---
	 - Coordinate -           - BOHR/RAD -       - ANG/DEG -
	 R(1,2)           =         2.078967	       1.100142
	 R(1,3)           =         2.078965	       1.100141
	 R(1,4)           =         2.078965	       1.100141
	 R(1,5)           =         2.078964	       1.100140
	 B(2,1,3)         =         1.910630	     109.471027
	 B(2,1,4)         =         1.910630	     109.471027
	 B(2,1,5)         =         1.910632	     109.471162
	 B(3,1,4)         =         1.910632	     109.471137
	 B(3,1,5)         =         1.910638	     109.471486
	 B(4,1,5)         =         1.910638	     109.471486

	Current energy   :       -40.5163487382

	Energy change for the previous step:
		Projected    :        -0.0002304282
		Actual       :        -0.0001108285

	Performing BFGS update.
	Previous computed or guess Hessian on step 1.
	Steps to be used in Hessian update: 1
	Taking RFO optimization step.
	Going to follow RFO solution 1.
	Using RFO vector 1.
	Norm of target step-size    0.00082
	Projected energy change by RFO approximation:        -0.0000002403

	Back-transformation to cartesian coordinates...
	Successfully converged to displaced geometry.

	--- Internal Coordinate Step in ANG or DEG, aJ/ANG or AJ/DEG ---
	 ---------------------------------------------------------------------------
	   Coordinate                Previous        Force       Change         New 
	   ----------                --------       ------       ------       ------
	    1 R(1,2)          =      1.100142    -0.001203    -0.000217     1.099925
	    2 R(1,3)          =      1.100141    -0.001203    -0.000217     1.099924
	    3 R(1,4)          =      1.100141    -0.001203    -0.000217     1.099924
	    4 R(1,5)          =      1.100140    -0.001204    -0.000217     1.099923
	    5 B(2,1,3)        =    109.471027    -0.000000    -0.000020   109.471007
	    6 B(2,1,4)        =    109.471027    -0.000000    -0.000020   109.471007
	    7 B(2,1,5)        =    109.471162     0.000000     0.000046   109.471207
	    8 B(3,1,4)        =    109.471137    -0.000000    -0.000063   109.471073
	    9 B(3,1,5)        =    109.471486     0.000000     0.000029   109.471515
	   10 B(4,1,5)        =    109.471486     0.000000     0.000029   109.471515
	 ---------------------------------------------------------------------------
	Successfully symmetrized geometry.

  ==> Convergence Check <==

  Measures of convergence in internal coordinates in au.
  Criteria marked as inactive (o), active & met (*), and active & unmet ( ).
  ---------------------------------------------------------------------------------------------
   Step     Total Energy     Delta E     MAX Force     RMS Force      MAX Disp      RMS Disp   
  ---------------------------------------------------------------------------------------------
    Convergence Criteria    1.00e-06 *    3.00e-04 *             o    1.20e-03 *             o
  ---------------------------------------------------------------------------------------------
      2     -40.51634874   -1.11e-04      1.46e-04 *    9.24e-05 o    4.11e-04 *    2.60e-04 o  ~
  ---------------------------------------------------------------------------------------------


  **** Optimization is complete! (in 2 steps) ****

  ==> Optimization Summary <==

  Measures of convergence in internal coordinates in au.
  --------------------------------------------------------------------------------------------------------------- ~
   Step         Total Energy             Delta E       MAX Force       RMS Force        MAX Disp        RMS Disp  ~
  --------------------------------------------------------------------------------------------------------------- ~
      1     -40.516237909694    -40.516237909694      0.00445761      0.00281890      0.01293651      0.00818079  ~
      2     -40.516348738187     -0.000110828493      0.00014615      0.00009237      0.00041069      0.00025956  ~
  --------------------------------------------------------------------------------------------------------------- ~

	Writing optimization data to binary file.
	Final energy is    -40.5163487381866
	Final (previous) structure:
	Cartesian Geometry (in Angstrom)
	    C     0.0000004172  -0.0000005769   0.0000000000
	    H     0.0000004172   1.1001411240   0.0000000000
	    H    -0.5186142043  -0.3667106567   0.8982607137
	    H    -0.5186142043  -0.3667106567  -0.8982607137
	    H     1.0372230240  -0.3667129420   0.0000000000
	Saving final (previous) structure.
			--------------------------
			 OPTKING Finished Execution 
			--------------------------

    Final optimized geometry and variables:
    Molecular point group: cs
    Full point group: Cs

    Geometry (in Angstrom), charge = 0, multiplicity = 1:

    C       
    H             1          R1
    H             1          R2      2          A2
    H             1          R3      2          A3      3          D3
    H             1          R4      2          A4      3          D4

    A2        =  109.4710267014
    A3        =  109.4710267014
    A4        =  109.4711615007
    D3        =  119.9996597135
    D4        = -120.0001701433
    R1        =    1.1001417052
    R2        =    1.1001407763
    R3        =    1.1001407763
    R4        =    1.1001403112

	Removing binary optimization data file.
	Cleaning optimization helper files.

    Psi4 stopped on: Friday, 23 August 2019 03:34PM
    Psi4 wall time for execution: 0:00:08.29

*** Psi4 exiting successfully. Buy a developer a beer!
