[Molden Format]
[Molpro variables]
_NUMVAR=  709.0000000000000    
_EV2006= 0.3674930886769165E-01
_EV= 0.3674932534394180E-01
_KJOULE= 0.3808798324128737E-03
_KJOULE/MOL= 0.3808798324128737E-03
_CM= 0.4556335267302901E-05
_CM-1= 0.4556335267302901E-05
_KCAL= 0.1593601117815568E-02
_KCAL/MOL= 0.1593601117815568E-02
_KELVIN2006= 0.3166828861084835E-05
_KELVIN= 0.3166814820820034E-05
_HERTZ2006= 0.1519829850815779E-15
_HERTZ= 0.1519829846011223E-15
_HZ2006= 0.1519829850815779E-15
_HZ= 0.1519829846011223E-15
_TOA2006= 0.5291772490000000    
_TOA= 0.5291772090000000    
_TOANG2006= 0.5291772490000000    
_TOANG= 0.5291772090000000    
_TORAD= 0.1745329251994330E-01
_TOCM=  219474.6306700000    
_TODEBYE=  2.541580000000000    
_TOEV2006=  27.21139610000000    
_TOEV=  27.21138390000000    
_TOHERTZ2006=  6579683899900000.    
_TOHERTZ=  6579683920700000.    
_TOHZ2006=  6579683899900000.    
_TOHZ=  6579683920700000.    
_TOK2006=  315773.3000000000    
_TOK=  315774.7000000000    
_TOKCAL=  627.5096000000000    
_TOKELVIN2006=  315773.3000000000    
_TOKELVIN=  315774.7000000000    
_TOKJ=  2625.500000000000    
_TOKJOULE=  2625.500000000000    
_ANG2006=  1.889725988578923    
_ANG=  1.889726131421507    
_ANGSTROM2006=  1.889725988578923    
_ANGSTROM=  1.889726131421507    
_IGNORE_UNDEF=  2.000000000000000    
_STRICTCHECK=  0.000000000000000    
_SEW_ONEEL=  0.000000000000000    
_CPPDONE=FALSE
_DKROLL_DONE=  0.000000000000000    
_FOCKDONE=  0.000000000000000    
_GRADONE=FALSE
_HESSDONE=TRUE
_INTDONE=TRUE
_SCFDONE=FALSE
_MODUL_CUDA=FALSE
_MODUL_SLATER=FALSE
_MODUL_MRCC=FALSE
_MRCC_EXEC=
_FITC_AO_SAVED=FALSE
_FITC_MO_SAVED=FALSE
_SHARED_FS=TRUE
_LSTYP=SEWARD
_INTYP=INTS
_GEOMTYP=ZMAT
_GRADTYP=ALASKA
_DIRECT=FALSE
_SYNCM=  0.000000000000000    
_BASIS=CC-PVDZ
_ZORIENT=  1.000000000000000    
_NELEC=  16.00000000000000    
_SPIN=  0.000000000000000    
!SPIN=  0.000000000000000    
_OPTCONV= 0.6807810630917881E-03
_QSDSTEP=  0.000000000000000    
_QSDIRC=  0.000000000000000    
_PROGRAM=FREQ
_CPUSTEP=  0.000000000000000    
_SYSSTEP=  0.000000000000000    
_WALLSTEP= 0.1000000000000000    
!DFMP2=  0.000000000000000    
!DFSCF=  0.000000000000000    
!SCSGRD=  0.000000000000000    
_BASINP=  610.0000000000000    
_CPUTOT=  103.9300000000000    
_DFTEXFAC=  1.000000000000000    
_DMX= 0.1356435031979982E-05
_DMY= 0.2942967323099195    
_DMZ= 0.2627335828397726    
_FREQUENCIES= -1090.767953523879    
_EMP2= -78.18800147359534    
_ENERGR= -77.96052292550374    
_ENERGU= -78.23567819607646    
_ENERGY= -78.18800147359534    
_ENUC=  31.12542737504375    
_FREQSTEP=  37.00000000000000    
!RS2GRSTATE=  1.000000000000000    
!RS2GRSYM=  1.000000000000000    
_GRADENERG= -78.18799335320413    
_GRADEXFAC=  9999.000000000000    
_GRADMETHOD=TRUE
_GRADRECORD=  5200.100000000000    
_VIRIAL= 0.1986982160148174    
!GRID_FREEZE= -1.000000000000000    
_ITERATIONS=  0.000000000000000    
_LASTNELEC=  4.000000000000000    
_LASTSPIN=  0.000000000000000    
_LASTSYM=  1.000000000000000    
_MPP_PROG=  1.000000000000000    
_MSENERGY= -78.18800147359534    
_NPROC_MPP=  4.000000000000000    
_NPROC_SMP=  1.000000000000000    
_NUMSTEP=  0.000000000000000    
_OPTCONVMX= 0.3885459380717570E-03
_OPTCONVRMS= 0.6188918755379891E-04
_OPTGRAD= 0.3315891926812894E-03
_OPTGRADMX= 0.2075743977585553E-03
_OPTGRADRMS= 0.3014447206193540E-04
_OPTSTEP=  7.000000000000000    
_ORBITAL=  2143.200000000000    
_PI=  3.141592653589793    
!MCACT=  4.000000000000000    
!MCCLOSED=  6.000000000000000    
!MCFREEZE=  0.000000000000000    
!MCMS2=  0.000000000000000    
!MCNEL=  4.000000000000000    
!MCNSTSYM=  1.000000000000000    
!MCSTATE=  1.000000000000000    
!MCSYM=  1.000000000000000    
!MCWEIGHT=  1.000000000000000    
_SEIG_MIN= 0.4104389281203186E-02
_SEWPROP=TRUE
_STATUS=  1.000000000000000    
_SYSTOT=  7.070000000000000    
_VERSION=  2010001.000000000    
_WALLTOT=  356.2900000000000    
_ZPE= 0.4061455819239263E-01
_DATE=06-Sep-19
_LASTORB=MCSCF
_MACHINE=Linux-2.6.34-12-desktop/tt106(x86_64) 64 bit mpp version
_OUTPUT=/home/carlo/qm/combustion/barrierless/c2h4_c2h3_h/dist_2.1/molpro.xml
_PGROUP=C1
_TIME=03:11:21
_LIBMOL=/programs/molpro2010p/bin/../lib/
!SURFREC=  0.000000000000000    
!POLYREC=  0.000000000000000    
!DIPREC=  0.000000000000000    
!VSCFREC=  0.000000000000000    
!VCIREC=  0.000000000000000    
!PVCIREC=  0.000000000000000    
!VMP2REC=  0.000000000000000    
!VMCSCFREC=  0.000000000000000    
!GAREC=  0.000000000000000    
!SCFORB=  21002.00000000000    
!MCORB=  21432.00000000000    
!CIOCC=  10.00000000000000    
!CICORE=  2.000000000000000    
!CICLOS=  6.000000000000000    
!CIISTSYM=  1.000000000000000    
!CIISTMS2=  0.000000000000000    
!CIISTNEL=  12.00000000000000    
!NEWMOL=  0.000000000000000    
!NEWSYM=  0.000000000000000    
_SLFILES=slscratch
_NGSSTO=  9.000000000000000    
_SIN=SIN
_COS=COS
_TAN=TAN
_ACOS=ACOS
_ASIN=ASIN
_ATAN=ATAN
_COSH=COSH
_SINH=SINH
_TANH=TANH
_ABS=ABS
_MOD=MOD
_ERF=ERF
_REFC=REFC
_ERFC=ERFC
_HYPOT=HYPOT
_J0=J0
_J1=J1
_JN=JN
_GAMMA=GAMMA
_LGAMMA=LGAMMA
_Y0=Y0
_Y1=Y1
_YN=YN
_EXP=EXP
_LOG=LOG
_LOG10=LOG10
_SQRT=SQRT
_INT=INT
_NINT=NINT
_MAX=MAX
_MIN=MIN
_COSMO=  0.000000000000000    
_COSMOIT=  0.000000000000000    
_COSMOES=  0.000000000000000    
_COSMOEDS=  0.000000000000000    
_COSMOEC=  0.000000000000000    
_COSMOEDCORR=  0.000000000000000    
_FEPSI=  1.000000000000000    
_SL_IsMM=  0.000000000000000    
_SL_NSYM=  0.000000000000000    
_SL_System_BitSw=  0.000000000000000    
_SL_Unique_atoms=  0.000000000000000    
_SL_GRAD=  0.000000000000000    
_SL_MAXUPD_Hess=  5.000000000000000    
_SL_N_PRINT_COD=  5.000000000000000    
_SL_PRINT_CODES=  0.000000000000000    
_SL_BasType=  0.000000000000000    
_SL_Energy_Pred=  0.000000000000000    
_SL_New_Coords=  0.000000000000000    
_SL_Total_Nuclea=  0.000000000000000    
_SL_Highest_Mltp=  0.000000000000000    
_SL_Ref_Geom=  0.000000000000000    
!LATTICE= -1.000000000000000    
!NEWLATTICE=  0.000000000000000    
!LATGRAD_VAR=FALSE
!SEW_LATTICE=  1.000000000000000    
!LOCAL=  0.000000000000000    
!SAVEDOM= -1.000000000000000    
!RESTDOM= -1.000000000000000    
!SAVEDOM_HF= -1.000000000000000    
!RESTDOM_HF= -1.000000000000000    
!HESSREC=  5300.200000000000    
!FREQREC=  5400.200000000000    
!NMODREC=  5450.200000000000    
!GTASKS=  0.000000000000000    
!HTASKS=  5500.200000000000    
!THRCHG= 0.1000000000000000    
!DEBUG= -1.000000000000000    
!CFIT_CPHF=  0.000000000000000    
!RDOMAUX_CPHF=  3.000000000000000    
!THRAO_CPHF= 0.1000000000000000E-09
!THRMO_CPHF= 0.1000000000000000E-09
!THROV_CPHF= 0.1000000000000000E-11
!THRSW_CPHF= 0.1000000000000000E-09
!THRPROD_CPHF= 0.1000000000000000E-09
!THRAOPR_CPHF= 0.1000000000000000E-11
!CFIT_SCFGRD=  0.000000000000000    
!RDOMAUX_SCFGRD=  5.000000000000000    
!THRAO_SCFGRD= 0.1000000000000000E-09
!THRMO_SCFGRD= 0.1000000000000000E-09
!THROV_SCFGRD= 0.1000000000000000E-11
!THRSW_SCFGRD= 0.1000000000000000E-09
!THRPROD_SCFGRD= 0.1000000000000000E-09
!THRAOPR_SCFGRD= 0.1000000000000000E-11
!LOCFIT_SCF=  0.000000000000000    
!LOCFIT_MP2= -1.000000000000000    
_RIDOM=  0.000000000000000    
!CC2_METHOD=  0.000000000000000    
_BASIS2006=FALSE
_SVDDEL= -1.000000000000000    
_SVDDELA= -1.000000000000000    
_SVDDELP= -1.000000000000000    
_SVDDELF= -1.000000000000000    
_SVDDELS= -1.000000000000000    
_SVDDEL_ABS= -1.000000000000000    
_SVDDELA_ABS= -1.000000000000000    
_SVDDELP_ABS= -1.000000000000000    
_SVDDELF_ABS= -1.000000000000000    
_SVDDELS_ABS= -1.000000000000000    
_MAXBASIS=  0.000000000000000    
!OPT_CONICAL=  0.000000000000000    
!CLEARSP_JGRID=  0.000000000000000    
RCC1=  1.335659090545205    
RCC2=  1.098104118673249    
RCC3=  1.092334260850516    
RCH2=  1.090514674234977    
ACCC1=  119.6981818693442    
AHCC1=  122.4115803846648    
AHCC2=  118.1081364350479    
AHCC3=  133.5486563885752    
B1=  179.9999678529880    
B2=  179.9995074474926    
B3=  180.0005379757149    
RCH1=  2.100000000000000    
GX1=-0.2028763311902543E-05
GY1= 0.2490380585738484    
GZ1= -1.196885664783237    
GX2= 0.5652505295888405E-06
GY2=-0.1228978958827502    
GZ2=  1.299589953277202    
GX3= 0.9717831355064663E-05
GY3=  1.508472598410349    
GZ3=  2.582062925023088    
GX4=-0.7102393021849735E-05
GY4= -2.009561280753634    
GZ4=  2.137130947882265    
GX5= 0.1041963732722229E-04
GY5= -2.937626559583621    
GZ5= -3.561957462333200    
GX6= 0.4404704513352777E-05
GY6=  1.935580636610338    
GZ6= -2.381100141648416    
C1X1=-0.2028763311902673E-05
C1Y1= 0.2490380585738484    
C1Z1= -1.196885664783237    
C2X2= 0.5652505295893756E-06
C2Y2=-0.1228978958827502    
C2Z2=  1.299589953277202    
H3X3= 0.9717831355064016E-05
H3Y3=  1.508472598410349    
H3Z3=  2.582062925023088    
H4X4=-0.7102393021849590E-05
H4Y4= -2.009561280753634    
H4Z4=  2.137130947882265    
H5X5= 0.1041963732722161E-04
H5Y5= -2.937626559583621    
H5Z5= -3.561957462333200    
H6X6= 0.4404704513353425E-05
H6Y6=  1.935580636610338    
H6Z6= -2.381100141648416    
CBSEN= -78.18800147359534    
[Atoms] Angs
C     1    6        -0.0000010736        0.1317852648       -0.6333646156
C     2    6         0.0000002991       -0.0650347655        0.6877133843
H     3    1         0.0000051425        0.7982493195        1.3663688521
H     4    1        -0.0000037584       -1.0634140299        1.1309209903
H     5    1         0.0000055138       -1.5545250239       -1.8849067085
H     6    1         0.0000023309        1.0242651591       -1.2600239273
[GTO]
  1 0
 s    9  1.00
  0.6665000000D+04  0.6920001793D-03
  0.1000000000D+04  0.5329001381D-02
  0.2280000000D+03  0.2707700701D-01
  0.6471000000D+02  0.1017180264D+00
  0.2106000000D+02  0.2747400712D+00
  0.7495000000D+01  0.4485641162D+00
  0.2797000000D+01  0.2850740738D+00
  0.5215000000D+00  0.1520400394D-01
  0.1596000000D+00 -0.3191000827D-02
 s    9  1.00
  0.6665000000D+04 -0.1460000642D-03
  0.1000000000D+04 -0.1154000508D-02
  0.2280000000D+03 -0.5725002519D-02
  0.6471000000D+02 -0.2331201026D-01
  0.2106000000D+02 -0.6395502813D-01
  0.7495000000D+01 -0.1499810660D+00
  0.2797000000D+01 -0.1272620560D+00
  0.5215000000D+00  0.5445292395D+00
  0.1596000000D+00  0.5804962554D+00
 s    9  1.00
  0.6665000000D+04  0.0000000000D+00
  0.1000000000D+04  0.0000000000D+00
  0.2280000000D+03  0.0000000000D+00
  0.6471000000D+02  0.0000000000D+00
  0.2106000000D+02  0.0000000000D+00
  0.7495000000D+01  0.0000000000D+00
  0.2797000000D+01  0.0000000000D+00
  0.5215000000D+00  0.0000000000D+00
  0.1596000000D+00  0.1000000000D+01
 p    4  1.00
  0.9439000000D+01  0.3810902127D-01
  0.2002000000D+01  0.2094801169D+00
  0.5456000000D+00  0.5085572839D+00
  0.1517000000D+00  0.4688422617D+00
 p    4  1.00
  0.9439000000D+01  0.0000000000D+00
  0.2002000000D+01  0.0000000000D+00
  0.5456000000D+00  0.0000000000D+00
  0.1517000000D+00  0.1000000000D+01
 d    1  1.00
  0.5500000000D+00  0.1000000000D+01
  
  2 0
 s    9  1.00
  0.6665000000D+04  0.6920001793D-03
  0.1000000000D+04  0.5329001381D-02
  0.2280000000D+03  0.2707700701D-01
  0.6471000000D+02  0.1017180264D+00
  0.2106000000D+02  0.2747400712D+00
  0.7495000000D+01  0.4485641162D+00
  0.2797000000D+01  0.2850740738D+00
  0.5215000000D+00  0.1520400394D-01
  0.1596000000D+00 -0.3191000827D-02
 s    9  1.00
  0.6665000000D+04 -0.1460000642D-03
  0.1000000000D+04 -0.1154000508D-02
  0.2280000000D+03 -0.5725002519D-02
  0.6471000000D+02 -0.2331201026D-01
  0.2106000000D+02 -0.6395502813D-01
  0.7495000000D+01 -0.1499810660D+00
  0.2797000000D+01 -0.1272620560D+00
  0.5215000000D+00  0.5445292395D+00
  0.1596000000D+00  0.5804962554D+00
 s    9  1.00
  0.6665000000D+04  0.0000000000D+00
  0.1000000000D+04  0.0000000000D+00
  0.2280000000D+03  0.0000000000D+00
  0.6471000000D+02  0.0000000000D+00
  0.2106000000D+02  0.0000000000D+00
  0.7495000000D+01  0.0000000000D+00
  0.2797000000D+01  0.0000000000D+00
  0.5215000000D+00  0.0000000000D+00
  0.1596000000D+00  0.1000000000D+01
 p    4  1.00
  0.9439000000D+01  0.3810902127D-01
  0.2002000000D+01  0.2094801169D+00
  0.5456000000D+00  0.5085572839D+00
  0.1517000000D+00  0.4688422617D+00
 p    4  1.00
  0.9439000000D+01  0.0000000000D+00
  0.2002000000D+01  0.0000000000D+00
  0.5456000000D+00  0.0000000000D+00
  0.1517000000D+00  0.1000000000D+01
 d    1  1.00
  0.5500000000D+00  0.1000000000D+01
  
  3 0
 s    4  1.00
  0.1301000000D+02  0.1968498999D-01
  0.1962000000D+01  0.1379769298D+00
  0.4446000000D+00  0.4781477569D+00
  0.1220000000D+00  0.5012397451D+00
 s    4  1.00
  0.1301000000D+02  0.0000000000D+00
  0.1962000000D+01  0.0000000000D+00
  0.4446000000D+00  0.0000000000D+00
  0.1220000000D+00  0.1000000000D+01
 p    1  1.00
  0.7270000000D+00  0.1000000000D+01
  
  4 0
 s    4  1.00
  0.1301000000D+02  0.1968498999D-01
  0.1962000000D+01  0.1379769298D+00
  0.4446000000D+00  0.4781477569D+00
  0.1220000000D+00  0.5012397451D+00
 s    4  1.00
  0.1301000000D+02  0.0000000000D+00
  0.1962000000D+01  0.0000000000D+00
  0.4446000000D+00  0.0000000000D+00
  0.1220000000D+00  0.1000000000D+01
 p    1  1.00
  0.7270000000D+00  0.1000000000D+01
  
  5 0
 s    4  1.00
  0.1301000000D+02  0.1968498999D-01
  0.1962000000D+01  0.1379769298D+00
  0.4446000000D+00  0.4781477569D+00
  0.1220000000D+00  0.5012397451D+00
 s    4  1.00
  0.1301000000D+02  0.0000000000D+00
  0.1962000000D+01  0.0000000000D+00
  0.4446000000D+00  0.0000000000D+00
  0.1220000000D+00  0.1000000000D+01
 p    1  1.00
  0.7270000000D+00  0.1000000000D+01
  
  6 0
 s    4  1.00
  0.1301000000D+02  0.1968498999D-01
  0.1962000000D+01  0.1379769298D+00
  0.4446000000D+00  0.4781477569D+00
  0.1220000000D+00  0.5012397451D+00
 s    4  1.00
  0.1301000000D+02  0.0000000000D+00
  0.1962000000D+01  0.0000000000D+00
  0.4446000000D+00  0.0000000000D+00
  0.1220000000D+00  0.1000000000D+01
 p    1  1.00
  0.7270000000D+00  0.1000000000D+01
 
 
[MO]
 Sym=      1.1
 Ene=     -11.2681
 Spin= Alpha
 Occup=    2.000000
1 1.00053612170101
2 0.006253507671712
3 -0.007700389254454
4 0.000000018519072
5 0.001127728593481
6 0.000365386282179
7 -0.000000008678422
8 -0.000305821493386
9 -0.000716197878483
10 -0.000535098925931
11 -0.000047383962194
12 0.000582482888125
13 0.000000002267389
14 -0.000000001892972
15 -0.001073027510568
16 0.032953096950535
17 -0.000956594018592
18 0.002565131804558
19 0.000000010002738
20 -0.000076855042810
21 0.000282364970597
22 0.000000000853979
23 0.000378243149849
24 -0.001505804864967
25 0.000233915327806
26 -0.000009835333774
27 -0.000224079994033
28 -0.000000001890139
29 -0.000000003921905
30 -0.000489493281625
31 0.000206258395415
32 0.000076511900786
33 -0.000000001056385
34 -0.000233373303273
35 -0.000115870979562
36 -0.000074881294922
37 0.000592287762788
38 -0.000000000187424
39 -0.000013745984301
40 -0.000121974203558
41 -0.000448597308868
42 0.000247627490317
43 -0.000000000616221
44 0.000192798551142
45 0.000172965506959
46 -0.001111238677699
47 0.001924305576482
48 0.000000003959593
49 0.000736018442620
50 -0.000147655564787
 Sym=      2.1
 Ene=     -11.2441
 Spin= Alpha
 Occup=    2.000000
1 -0.033967996877893
2 -0.001074551930614
3 0.002841988587118
4 -0.000000002882100
5 -0.000078661490236
6 -0.000357537406413
7 0.000000000653989
8 -0.000354277199525
9 0.001219062139454
10 0.000328424610137
11 -0.000077340465975
12 -0.000251084144163
13 -0.000000001934133
14 -0.000000000522894
15 0.000117708180337
16 1.00087257388233
17 0.008436521652966
18 -0.009466335352102
19 -0.000000004361163
20 0.000027833366906
21 0.000001482849223
22 0.000000003068811
23 -0.000002991409776
24 0.000611914916192
25 -0.000732562506722
26 0.000274293840775
27 0.000458268665947
28 0.000000005182005
29 0.000000001729380
30 -0.000057854137783
31 -0.000563972277701
32 0.001474520401464
33 0.000000002308928
34 0.000459516061531
35 0.000283642080070
36 -0.000566273170126
37 0.001550948082252
38 -0.000000002129206
39 -0.000512548539413
40 0.000146378844289
41 -0.000042413345214
42 0.000028023452304
43 0.000000000181145
44 -0.000012866821127
45 -0.000037087496068
46 0.000186142240534
47 0.000171044483971
48 -0.000000000587083
49 -0.000130953153683
50 0.000087987495132
 Sym=      3.1
 Ene=      -1.0218
 Spin= Alpha
 Occup=    2.000000
1 -0.016798771828548
2 0.55774861553161
3 -0.12735492461359
4 0.000000839966567
5 0.027388081649436
6 0.24124248361613
7 -0.000000122816513
8 -0.007563439096904
9 -0.061748738325557
10 -0.010358313810122
11 -0.012217681526819
12 0.022575995336941
13 -0.000000010085732
14 0.000000058168870
15 -0.006645607868890
16 -0.023138127422623
17 0.65942657426597
18 -0.18972600558950
19 0.000000152106212
20 0.035264590978782
21 -0.17535245569625
22 0.000000095446326
23 -0.006838608553876
24 0.072721236689315
25 -0.007113719361384
26 -0.010070189318545
27 0.017183908679929
28 -0.000000019495902
29 0.000000002372278
30 -0.007004853673616
31 0.21270893346141
32 -0.10681709106765
33 -0.000000084039248
34 -0.014908937446388
35 -0.014575016759082
36 0.21371798492710
37 -0.096069423123137
38 0.000000074794666
39 0.017361030801676
40 -0.010194835343079
41 -0.007999166677752
42 -0.010176704133751
43 0.000000001455449
44 0.000112300214406
45 -0.000423546989957
46 0.17090003758433
47 -0.072495503396518
48 -0.000000025780216
49 -0.009978034392906
50 0.011530784879709
 Sym=      4.1
 Ene=      -0.7626
 Spin= Alpha
 Occup=    2.000000
1 -0.010561390639955
2 0.51408920504799
3 -0.095208117343795
4 0.000001323979323
5 0.23135026840416
6 -0.13280337313974
7 -0.000000197211660
8 -0.054443121210084
9 0.033416528749575
10 -0.002607006082414
11 0.007368919880993
12 -0.004761913798579
13 0.000000048473769
14 -0.000000000662251
15 -0.005477135955263
16 0.011073500939286
17 -0.38043578537902
18 0.057216542913836
19 0.000000551129837
20 0.10744022559193
21 -0.28661912105122
22 -0.000000000761484
23 -0.021959507459119
24 0.064102587213294
25 0.000739414720454
26 -0.011833925873615
27 0.011094511153161
28 -0.000000069322728
29 -0.000000039412265
30 -0.009156061178245
31 -0.27945614285224
32 0.097114507731719
33 0.000000095994078
34 0.016154709449934
35 0.007201504093871
36 -0.35764205055457
37 0.14271399576115
38 -0.000000087252542
39 -0.022200239769667
40 0.004741632162032
41 -0.008482723143057
42 -0.013864200347967
43 -0.000000001228312
44 0.000624400750734
45 0.000139963375015
46 0.48711181403432
47 -0.18047585570043
48 -0.000000080322211
49 -0.022617753619553
50 0.017311495648242
 Sym=      5.1
 Ene=      -0.6163
 Spin= Alpha
 Occup=    2.000000
1 -0.002356000233221
2 -0.11118669491675
3 0.055643531318856
4 0.000000466562364
5 0.28882449865142
6 -0.40605234959174
7 -0.000000193395243
8 -0.075034593792575
9 0.10726248222831
10 -0.000162096488955
11 0.011671196229264
12 -0.011509099740309
13 0.000000073076121
14 -0.000000018075366
15 0.005989707682714
16 -0.003125604492245
17 0.007249857197511
18 0.021871667578611
19 0.000001766101873
20 0.28569224792636
21 0.51914648760358
22 -0.000000451685279
23 -0.056176096705528
24 -0.11622938765099
25 -0.001122071762620
26 0.015549624005861
27 -0.014427552243241
28 0.000000084274795
29 0.000000008559898
30 0.009385701236808
31 0.53513060110324
32 -0.15713497054367
33 -0.000000108539228
34 -0.019497290455825
35 -0.009661261975706
36 -0.038366117702801
37 0.015927271858517
38 0.000000017013927
39 0.002378909977179
40 0.009685221348923
41 0.012408681429527
42 0.010312617405775
43 -0.000000001953092
44 0.000713339187898
45 -0.000208531195878
46 0.36144553648113
47 -0.11196462321196
48 -0.000000068974520
49 -0.013652193575082
50 0.004991668927430
 Sym=      6.1
 Ene=      -0.5749
 Spin= Alpha
 Occup=    2.000000
1 0.002671608609472
2 -0.037532921649174
3 -0.027243373365436
4 -0.000000100458407
5 -0.11622462727570
6 0.33204229765799
7 -0.000000071934123
8 0.020834574714296
9 -0.094108475014634
10 0.002053945781070
11 -0.015112788078657
12 0.013058842297587
13 -0.000000050771573
14 0.000000136268035
15 0.026051638734259
16 0.000757626325219
17 0.030154466034699
18 -0.010666971892558
19 0.000002030949388
20 0.56331791942138
21 -0.21677151368197
22 -0.000000466888689
23 -0.11319476570714
24 0.039768648258906
25 -0.000540620726240
26 -0.013335847667230
27 0.013876468393470
28 -0.000000053661518
29 0.000000122550429
30 0.019962185038605
31 0.33597874631243
32 -0.083642395155472
33 -0.000000040436496
34 -0.003063091705420
35 -0.015267603020656
36 -0.59466824412863
37 0.16416581347713
38 -0.000000080349281
39 -0.018746725640704
40 0.009628006599033
41 0.017461111192950
42 0.017679023857176
43 -0.000000000172052
44 -0.000381853620662
45 0.000140666727389
46 -0.33014611363450
47 0.079671886411806
48 0.000000039397012
49 0.008683751591337
50 -0.004447787015591
 Sym=      7.1
 Ene=      -0.3719
 Spin= Alpha
 Occup=    1.905200
1 -0.000000017464792
2 -0.000001186808836
3 0.000000090287609
4 0.61453292085790
5 -0.000002502269958
6 -0.000000838754378
7 -0.020493131337746
8 0.000000071202414
9 0.000000091720391
10 0.000000012885621
11 0.000000047609590
12 -0.000000060495211
13 -0.000772063529178
14 0.029891258779955
15 -0.000000077632281
16 0.000000018015112
17 0.000000224095109
18 -0.000000006010940
19 0.60015990874961
20 -0.000002574259711
21 -0.000000587501729
22 0.000866353184632
23 0.000000026529053
24 -0.000000046172029
25 -0.000000046311122
26 -0.000000008947316
27 0.000000055258437
28 0.005195881448077
29 -0.028061573523555
30 0.000000103490122
31 0.000000226854154
32 -0.000000161714206
33 0.013276061354719
34 -0.000000070086499
35 -0.000000032681535
36 0.000000107178562
37 0.000000004312633
38 0.013213687136817
39 -0.000000060179779
40 -0.000000014769525
41 0.000001403091129
42 -0.000000113071413
43 0.002017894840216
44 0.000000022056367
45 0.000000031473115
46 -0.000000182520672
47 0.000000139566647
48 0.014184615541204
49 -0.000000045405451
50 -0.000000024511025
 Sym=      8.1
 Ene=      -0.3350
 Spin= Alpha
 Occup=    1.750324
1 -0.003693069426637
2 0.20520894956951
3 0.070314918055028
4 -0.000002670112691
5 -0.43463818997998
6 -0.28774872340433
7 -0.000000055005317
8 -0.022397965372275
9 -0.003814855211073
10 -0.001960537237641
11 0.005336560801379
12 -0.003376023563738
13 -0.000000055729589
14 -0.000000062899200
15 0.021774031998232
16 -0.001007471761120
17 -0.079479381224649
18 0.013651796123484
19 -0.000001087089251
20 0.016411068937004
21 0.086980418405584
22 0.000000002075511
23 0.043388794776914
24 -0.015810759509799
25 0.001006545477485
26 -0.005715108150483
27 0.004708562672999
28 -0.000000007491018
29 0.000000131962333
30 0.023923168803662
31 0.10158294436746
32 0.011956085504950
33 -0.000000029590406
34 0.000112444985289
35 0.000615519567689
36 -0.074220197091680
37 0.015995063281664
38 -0.000000015917644
39 0.000913051798696
40 0.001951470184190
41 0.61974935987409
42 0.026521903918607
43 -0.000000034185728
44 0.005437546874880
45 0.003897347254384
46 -0.14007628127717
47 0.018757208917021
48 -0.000000043146333
49 -0.005683928791143
50 -0.007609509933730
 Sym=      9.1
 Ene=       0.0704
 Spin= Alpha
 Occup=    0.249723
1 -0.007826806277747
2 -0.35090606408134
3 -0.11124757713265
4 0.000003299808591
5 0.60742161989837
6 0.41508617200220
7 -0.000000305347766
8 0.012184240436876
9 -0.026533634542131
10 0.003300560769393
11 -0.009658492968626
12 0.006357932199233
13 -0.000000072414482
14 -0.000000173627959
15 -0.037856950922903
16 -0.000746098189054
17 0.072665610058166
18 0.010856297331316
19 -0.000002611664102
20 -0.028964495785156
21 -0.10769863073980
22 -0.000000222241429
23 -0.063158958315142
24 0.006260499130882
25 -0.003567077579294
26 0.008134380910079
27 -0.004567303330785
28 0.000000013347002
29 -0.000000085314067
30 -0.027958659381155
31 -0.12513325295307
32 0.004477653109408
33 -0.000000035136126
34 -0.000089350525145
35 0.001754100481347
36 0.075284442956592
37 -0.024222117412027
38 -0.000000059348560
39 -0.002058579610029
40 -0.003339449507624
41 0.91838089670925
42 -0.10704089099983
43 0.000000019502997
44 -0.004274759124220
45 -0.002525512089310
46 0.14628224843058
47 -0.034821114311152
48 0.000000035049853
49 0.008093895258108
50 0.008651153617621
 Sym=     10.1
 Ene=       0.2165
 Spin= Alpha
 Occup=    0.094753
1 -0.000000152007549
2 -0.000000784346308
3 0.000000083992922
4 0.92114108393522
5 -0.000004631699677
6 -0.000001763319954
7 -0.078527810512282
8 -0.000000207570163
9 -0.000000437205029
10 -0.000000577768293
11 0.000000323903817
12 0.000000253864476
13 -0.005805042635065
14 -0.006773514208405
15 0.000000091438718
16 -0.000000015125161
17 -0.000000019982070
18 0.000000260123350
19 -0.85268154231373
20 0.000003721155322
21 0.000000839732758
22 0.009565120335341
23 0.000000171590893
24 -0.000000230788822
25 -0.000000101404844
26 0.000000004513109
27 0.000000096891735
28 0.000947221277044
29 -0.009579030646723
30 0.000000145772294
31 0.000000294539456
32 0.000000210829375
33 -0.011118691182080
34 0.000000058500776
35 0.000000018872515
36 -0.000000089187756
37 0.000000130615888
38 -0.011094742599719
39 0.000000063689755
40 -0.000000004934874
41 -0.000003449821390
42 0.000000650028225
43 -0.001571744962579
44 0.000000020761488
45 0.000000015557919
46 0.000000379883009
47 0.000000121221574
48 0.011669754298486
49 -0.000000046903568
50 -0.000000024586759
 Sym=     11.1
 Ene=       0.2084
 Spin= Alpha
 Occup=    0.000000
1 0.020991180510586
2 -0.050322530414690
3 -0.65039992753562
4 -0.000000395164931
5 -0.14022633882597
6 0.12314680840857
7 -0.000001218800979
8 -0.24731265891025
9 0.31628023566738
10 0.004438293103927
11 -0.003877171617561
12 -0.000561121486366
13 -0.000000014959512
14 0.000000065264813
15 0.010324200002020
16 0.060083034522492
17 -0.14537683778930
18 -1.70774412714114
19 -0.000000501770764
20 -0.075077563432951
21 -0.24510038579756
22 -0.000000654376077
23 -0.081014050253713
24 -0.47676443323260
25 0.020991097024207
26 -0.018745790354967
27 -0.002245306669240
28 -0.000000191569389
29 -0.000000025339439
30 0.004805612844469
31 0.037262564430808
32 1.49760182442093
33 -0.000000081002542
34 -0.013930254692125
35 -0.014609474039398
36 0.030421006627005
37 0.86444887377362
38 0.000000054938809
39 0.014266227327345
40 -0.008176127167016
41 -0.062347971632099
42 0.009990831216071
43 -0.000000027349373
44 -0.000613348062533
45 0.007624783487955
46 -0.016018742699900
47 0.95152542727034
48 -0.000000005614504
49 -0.007243831849630
50 0.012008938236070
 Sym=     12.1
 Ene=       0.2236
 Spin= Alpha
 Occup=    0.000000
1 -0.038310439550996
2 0.14842463756968
3 1.03537228727187
4 0.000001225363885
5 0.24484163468041
6 -0.087515434871181
7 0.000001842265129
8 0.45455867061937
9 -0.34204992933648
10 -0.010405684643775
11 0.018196654203961
12 -0.007790969560186
13 0.000000151955893
14 -0.000000028415285
15 -0.005423358346823
16 0.030163384125958
17 -0.16171618226220
18 -0.81099883855379
19 0.000000788821483
20 0.20395691818515
21 -0.022765369676411
22 0.000001094017319
23 0.35022567211839
24 -0.21755812257134
25 0.010652492872241
26 -0.010227988681132
27 -0.000424504191109
28 -0.000000143411104
29 -0.000000092114632
30 -0.012564525775668
31 -0.010769188958607
32 0.048393036924325
33 -0.000000030972841
34 -0.005856103389809
35 0.000009450238971
36 0.064468723506020
37 1.37782359015343
38 0.000000066024792
39 0.016060778643165
40 -0.001602749374867
41 0.002955824557229
42 0.024249058424198
43 -0.000000017969049
44 -0.001286389388030
45 0.005608721631949
46 -0.086201115272741
47 -1.65774921248619
48 0.000000099985571
49 0.020359176820513
50 -0.008192885434517
 Sym=     13.1
 Ene=       0.2755
 Spin= Alpha
 Occup=    0.000000
1 0.029091273606556
2 -0.042284530134790
3 -0.86216060839997
4 -0.000000146119279
5 -0.14099440831933
6 0.045667747776314
7 -0.000003855613387
8 -0.82357934467429
9 0.17877635454114
10 0.018568458630985
11 -0.022276369386056
12 0.003707910755071
13 -0.000000139358767
14 0.000000104230057
15 0.020666214670551
16 -0.007008364346181
17 0.007606284012955
18 0.055122091834029
19 0.000001888059643
20 0.39167108980629
21 0.039164138682862
22 0.000006833659568
23 1.43810485756986
24 0.14823762711943
25 -0.003205933475272
26 -0.003892543409861
27 0.007098476885132
28 0.000000056800131
29 0.000000138644786
30 0.033791491632580
31 0.024612870982984
32 -1.89865886410466
33 0.000000114940233
34 0.018267308395702
35 0.019853652307597
36 -0.038797480137492
37 1.78394641411123
38 0.000000048036083
39 0.018053661054547
40 -0.015542038446962
41 -0.070615408830879
42 -0.12153001792434
43 -0.000000055334869
44 -0.001047008660889
45 -0.001685676594694
46 -0.055289942777837
47 1.36264811501835
48 -0.000000037634907
49 -0.018081145467953
50 0.012826958244738
 Sym=     14.1
 Ene=       0.4582
 Spin= Alpha
 Occup=    0.000000
1 -0.058964550265919
2 0.10611689985316
3 3.79956235893251
4 -0.000001183210511
5 -0.10442445438725
6 0.27235930939904
7 0.000003454808489
8 -0.70390119107148
9 2.80725541202176
10 -0.035078169491467
11 -0.028464258627002
12 0.063542428118468
13 -0.000000087092811
14 0.000000031791548
15 -0.015669290379075
16 0.080043721351045
17 0.063873924510850
18 -3.58251196568646
19 -0.000000315040795
20 -0.016285154361696
21 0.10213342981986
22 0.000003715133164
23 -0.32502801914580
24 3.36674158284040
25 0.056687368829657
26 -0.024901011699996
27 -0.031786357129661
28 -0.000000435844616
29 -0.000000000360921
30 0.011623985043869
31 -0.28087288760745
32 -0.54871502537775
33 -0.000000075150934
34 -0.016860629945584
35 0.004257734583732
36 -0.26168149217715
37 -0.37884388849310
38 0.000000111368839
39 0.022557523520102
40 0.004675988236567
41 0.17903454637233
42 -0.054757972854872
43 0.000000095062531
44 -0.007851034342570
45 0.011584200256757
46 -0.061595534367677
47 1.06965381186524
48 0.000000046343069
49 0.018735415899813
50 0.002627583684138
 Sym=     15.1
 Ene=       0.5827
 Spin= Alpha
 Occup=    0.000000
1 0.13632725468739
2 0.43616109056918
3 -0.94562974589583
4 0.000001260623491
5 0.030854087542616
6 0.54021642907517
7 -0.000001969030809
8 -0.068432661588097
9 -1.85615846462948
10 -0.061797424128224