[Molden Format]
[Molpro variables]
_NUMVAR=  727.0000000000000    
_EV2006= 0.3674930886769165E-01
_EV= 0.3674932534394180E-01
_KJOULE= 0.3808798324128737E-03
_KJOULE/MOL= 0.3808798324128737E-03
_CM= 0.4556335267302901E-05
_CM-1= 0.4556335267302901E-05
_KCAL= 0.1593601117815568E-02
_KCAL/MOL= 0.1593601117815568E-02
_KELVIN2006= 0.3166828861084835E-05
_KELVIN= 0.3166814820820034E-05
_HERTZ2006= 0.1519829850815779E-15
_HERTZ= 0.1519829846011223E-15
_HZ2006= 0.1519829850815779E-15
_HZ= 0.1519829846011223E-15
_TOA2006= 0.5291772490000000    
_TOA= 0.5291772090000000    
_TOANG2006= 0.5291772490000000    
_TOANG= 0.5291772090000000    
_TORAD= 0.1745329251994330E-01
_TOCM=  219474.6306700000    
_TODEBYE=  2.541580000000000    
_TOEV2006=  27.21139610000000    
_TOEV=  27.21138390000000    
_TOHERTZ2006=  6579683899900000.    
_TOHERTZ=  6579683920700000.    
_TOHZ2006=  6579683899900000.    
_TOHZ=  6579683920700000.    
_TOK2006=  315773.3000000000    
_TOK=  315774.7000000000    
_TOKCAL=  627.5096000000000    
_TOKELVIN2006=  315773.3000000000    
_TOKELVIN=  315774.7000000000    
_TOKJ=  2625.500000000000    
_TOKJOULE=  2625.500000000000    
_ANG2006=  1.889725988578923    
_ANG=  1.889726131421507    
_ANGSTROM2006=  1.889725988578923    
_ANGSTROM=  1.889726131421507    
_IGNORE_UNDEF=  2.000000000000000    
_STRICTCHECK=  0.000000000000000    
_SEW_ONEEL=  0.000000000000000    
_CPPDONE=FALSE
_DKROLL_DONE=  0.000000000000000    
_FOCKDONE=  0.000000000000000    
_GRADONE=FALSE
_HESSDONE=TRUE
_INTDONE=TRUE
_SCFDONE=FALSE
_MODUL_CUDA=FALSE
_MODUL_SLATER=FALSE
_MODUL_MRCC=FALSE
_MRCC_EXEC=
_FITC_AO_SAVED=FALSE
_FITC_MO_SAVED=FALSE
_SHARED_FS=TRUE
_LSTYP=SEWARD
_INTYP=INTS
_GEOMTYP=ZMAT
_GRADTYP=ALASKA
_DIRECT=FALSE
_SYNCM=  0.000000000000000    
_BASIS=CC-PVDZ
_ZORIENT=  1.000000000000000    
_NELEC=  18.00000000000000    
_SPIN=  0.000000000000000    
!SPIN=  0.000000000000000    
_OPTCONV= 0.2891216080364898E-02
_QSDSTEP=  0.000000000000000    
_QSDIRC=  0.000000000000000    
_PROGRAM=FREQ
_CPUSTEP=  0.000000000000000    
_SYSSTEP=  0.000000000000000    
_WALLSTEP= 0.1100000000000000    
!DFMP2=  0.000000000000000    
!DFSCF=  0.000000000000000    
!SCSGRD=  0.000000000000000    
_BASINP=  610.0000000000000    
_CPUTOT=  3465.950000000000    
_DFTEXFAC=  1.000000000000000    
_DMX= 0.2512922195338930E-04
_DMY= 0.2896432727125919E-02
_DMZ=-0.6008621695156258E-02
_FREQUENCIES= -395.5762707586784    
_EMP2= -79.44725764885399    
_ENERGR= -79.21950486255975    
_ENERGU= -79.44725764885399    
_ENERGY= -79.44725764444186    
_ENUC=  35.22682587580729    
_FREQSTEP=  49.00000000000000    
!RS2GRSTATE=  1.000000000000000    
!RS2GRSYM=  1.000000000000000    
_GRADENERG= -79.44725582707963    
_GRADEXFAC=  9999.000000000000    
_GRADMETHOD=TRUE
_GRADRECORD=  5200.100000000000    
_VIRIAL= 0.2313493068208590    
!GRID_FREEZE= -1.000000000000000    
_ITERATIONS=  0.000000000000000    
_LASTNELEC=  8.000000000000000    
_LASTSPIN=  0.000000000000000    
_LASTSYM=  1.000000000000000    
_MPP_PROG=  1.000000000000000    
_NPROC_MPP=  4.000000000000000    
_NPROC_SMP=  1.000000000000000    
_NUMSTEP=  0.000000000000000    
_OPTCONVMX= 0.1964302991411163E-02
_OPTCONVRMS= 0.1700715341391116E-03
_OPTGRAD= 0.1983198699683729E-03
_OPTGRADMX= 0.1301823936013334E-03
_OPTGRADRMS= 0.1166587470402194E-04
_OPTSTEP=  3.000000000000000    
_ORBITAL=  2144.200000000000    
_PI=  3.141592653589793    
!MCACT=  8.000000000000000    
!MCCLOSED=  5.000000000000000    
!MCFREEZE=  0.000000000000000    
!MCMS2=  0.000000000000000    
!MCNEL=  8.000000000000000    
!MCNSTSYM=  1.000000000000000    
!MCSTATE=  1.000000000000000    
!MCSYM=  1.000000000000000    
!MCWEIGHT=  1.000000000000000    
_SEIG_MIN= 0.1113748201063918E-01
_SEWPROP=TRUE
_STATUS=  1.000000000000000    
_SYSTOT=  40.48000000000000    
_VERSION=  2010001.000000000    
_WALLTOT=  3685.860000000000    
_ZPE= 0.6731394519890026E-01
_DATE=01-Aug-19
_LASTORB=MCSCF
_MACHINE=Linux-2.6.34-12-desktop/tt108(x86_64) 64 bit mpp version
_OUTPUT=/home/carlo/qm/combustion/test_diss/c2h6/newalg/dist_24_tz/molpro.xml
_PGROUP=C1
_TIME=16:22:11
_LIBMOL=/programs/molpro2010p/bin/../lib/
!SURFREC=  0.000000000000000    
!POLYREC=  0.000000000000000    
!DIPREC=  0.000000000000000    
!VSCFREC=  0.000000000000000    
!VCIREC=  0.000000000000000    
!PVCIREC=  0.000000000000000    
!VMP2REC=  0.000000000000000    
!VMCSCFREC=  0.000000000000000    
!GAREC=  0.000000000000000    
!SCFORB=  21002.00000000000    
!MCORB=  21442.00000000000    
!CIOCC=  13.00000000000000    
!CICORE=  2.000000000000000    
!CICLOS=  5.000000000000000    
!CIISTSYM=  1.000000000000000    
!CIISTMS2=  0.000000000000000    
!CIISTNEL=  14.00000000000000    
!NEWMOL=  0.000000000000000    
!NEWSYM=  0.000000000000000    
_SLFILES=slscratch
_NGSSTO=  9.000000000000000    
_SIN=SIN
_COS=COS
_TAN=TAN
_ACOS=ACOS
_ASIN=ASIN
_ATAN=ATAN
_COSH=COSH
_SINH=SINH
_TANH=TANH
_ABS=ABS
_MOD=MOD
_ERF=ERF
_REFC=REFC
_ERFC=ERFC
_HYPOT=HYPOT
_J0=J0
_J1=J1
_JN=JN
_GAMMA=GAMMA
_LGAMMA=LGAMMA
_Y0=Y0
_Y1=Y1
_YN=YN
_EXP=EXP
_LOG=LOG
_LOG10=LOG10
_SQRT=SQRT
_INT=INT
_NINT=NINT
_MAX=MAX
_MIN=MIN
_COSMO=  0.000000000000000    
_COSMOIT=  0.000000000000000    
_COSMOES=  0.000000000000000    
_COSMOEDS=  0.000000000000000    
_COSMOEC=  0.000000000000000    
_COSMOEDCORR=  0.000000000000000    
_FEPSI=  1.000000000000000    
_SL_IsMM=  0.000000000000000    
_SL_NSYM=  0.000000000000000    
_SL_System_BitSw=  0.000000000000000    
_SL_Unique_atoms=  0.000000000000000    
_SL_GRAD=  0.000000000000000    
_SL_MAXUPD_Hess=  5.000000000000000    
_SL_N_PRINT_COD=  5.000000000000000    
_SL_PRINT_CODES=  0.000000000000000    
_SL_BasType=  0.000000000000000    
_SL_Energy_Pred=  0.000000000000000    
_SL_New_Coords=  0.000000000000000    
_SL_Total_Nuclea=  0.000000000000000    
_SL_Highest_Mltp=  0.000000000000000    
_SL_Ref_Geom=  0.000000000000000    
!LATTICE= -1.000000000000000    
!NEWLATTICE=  0.000000000000000    
!LATGRAD_VAR=FALSE
!SEW_LATTICE=  1.000000000000000    
!LOCAL=  0.000000000000000    
!SAVEDOM= -1.000000000000000    
!RESTDOM= -1.000000000000000    
!SAVEDOM_HF= -1.000000000000000    
!RESTDOM_HF= -1.000000000000000    
!HESSREC=  5300.200000000000    
!FREQREC=  5400.200000000000    
!NMODREC=  5450.200000000000    
!GTASKS=  0.000000000000000    
!HTASKS=  5500.200000000000    
!THRCHG= 0.1000000000000000    
!DEBUG= -1.000000000000000    
!CFIT_CPHF=  0.000000000000000    
!RDOMAUX_CPHF=  3.000000000000000    
!THRAO_CPHF= 0.1000000000000000E-09
!THRMO_CPHF= 0.1000000000000000E-09
!THROV_CPHF= 0.1000000000000000E-11
!THRSW_CPHF= 0.1000000000000000E-09
!THRPROD_CPHF= 0.1000000000000000E-09
!THRAOPR_CPHF= 0.1000000000000000E-11
!CFIT_SCFGRD=  0.000000000000000    
!RDOMAUX_SCFGRD=  5.000000000000000    
!THRAO_SCFGRD= 0.1000000000000000E-09
!THRMO_SCFGRD= 0.1000000000000000E-09
!THROV_SCFGRD= 0.1000000000000000E-11
!THRSW_SCFGRD= 0.1000000000000000E-09
!THRPROD_SCFGRD= 0.1000000000000000E-09
!THRAOPR_SCFGRD= 0.1000000000000000E-11
!LOCFIT_SCF=  0.000000000000000    
!LOCFIT_MP2= -1.000000000000000    
_RIDOM=  0.000000000000000    
!CC2_METHOD=  0.000000000000000    
_BASIS2006=FALSE
_SVDDEL= -1.000000000000000    
_SVDDELA= -1.000000000000000    
_SVDDELP= -1.000000000000000    
_SVDDELF= -1.000000000000000    
_SVDDELS= -1.000000000000000    
_SVDDEL_ABS= -1.000000000000000    
_SVDDELA_ABS= -1.000000000000000    
_SVDDELP_ABS= -1.000000000000000    
_SVDDELF_ABS= -1.000000000000000    
_SVDDELS_ABS= -1.000000000000000    
_MAXBASIS=  0.000000000000000    
!OPT_CONICAL=  0.000000000000000    
!CLEARSP_JGRID=  0.000000000000000    
RCC2=  1.094076151079765    
RCC3=  1.094076375517364    
RCC4=  1.100109190512275    
RCH1=  1.100080244521050    
RCH2=  1.100078743346285    
RCH3=  1.093232026939812    
ACCC1=  101.6543613300274    
AHCC1=  101.6556558776470    
AHCC2=  101.5280063085681    
AHCC3=  101.5394437723715    
AHCC4=  101.6510313696837    
AHCC5=  101.6667231828254    
B1=  120.0105429414916    
B5= -119.9944415017086    
B3=  119.8405512549389    
B4= -120.0778756864006    
B2=  60.06955072564161    
RCC1=  2.400000000000000    
GX1= 0.1974911420765162E-05
GY1= 0.1150504257473410E-02
GZ1= -2.267913301965370    
GX2=-0.7778405961902243E-05
GY2= 0.8498846237328241E-03
GZ2=  2.267429403472656    
GX3=  1.756136902976835    
GY3=  1.008837322081743    
GZ3=  2.685150821789123    
GX4= -1.751227449967633    
GY4=  1.017354565706445    
GZ4=  2.685189679681511    
GX5=-0.4945179946836635E-02
GY5= -2.035127775075781    
GZ5=  2.687687589090111    
GX6=  1.760205343358830    
GY6= -1.023861451248518    
GZ6= -2.683429264205714    
GX7= -1.764911552288939    
GY7= -1.015555162287924    
GZ7= -2.683842330315561    
GX8= 0.4811092536724794E-02
GY8=  2.024515098942802    
GZ8= -2.684990175825951    
C1X1= 0.1974911420765321E-05
C1Y1= 0.1150504257473411E-02
C1Z1= -2.267913301965370    
C2X2=-0.7778405961902934E-05
C2Y2= 0.8498846237328245E-03
C2Z2=  2.267429403472656    
H3X3=  1.756136902976835    
H3Y3=  1.008837322081743    
H3Z3=  2.685150821789123    
H4X4= -1.751227449967633    
H4Y4=  1.017354565706445    
H4Z4=  2.685189679681511    
H41X5=-0.4945179946836636E-02
H41Y5= -2.035127775075781    
H41Z5=  2.687687589090111    
H5X6=  1.760205343358830    
H5Y6= -1.023861451248518    
H5Z6= -2.683429264205714    
H6X7= -1.764911552288939    
H6Y7= -1.015555162287924    
H6Z7= -2.683842330315561    
H7X8= 0.4811092536724794E-02
H7Y8=  2.024515098942802    
H7Z8= -2.684990175825951    
CBSEN= -79.44725764444186    
[Atoms] Angs
C     1    6         0.0000010451        0.0006088206       -1.2001280314
C     2    6        -0.0000041162        0.0004497396        1.1998719633
H     3    1         0.9293076249        0.5338537184        1.4209206176
H     4    1        -0.9267096543        0.5383608496        1.4209411803
H     5    1        -0.0026168765       -1.0769432360        1.4222630171
H     6    1         0.9314605509       -0.5418041452       -1.4200096086
H     7    1        -0.9339509694       -0.5374086464       -1.4202281938
H     8    1         0.0025459205        1.0713272496       -1.4208356074
[GTO]
  1 0
 s    9  1.00
  0.6665000000D+04  0.6920001793D-03
  0.1000000000D+04  0.5329001381D-02
  0.2280000000D+03  0.2707700701D-01
  0.6471000000D+02  0.1017180264D+00
  0.2106000000D+02  0.2747400712D+00
  0.7495000000D+01  0.4485641162D+00
  0.2797000000D+01  0.2850740738D+00
  0.5215000000D+00  0.1520400394D-01
  0.1596000000D+00 -0.3191000827D-02
 s    9  1.00
  0.6665000000D+04 -0.1460000642D-03
  0.1000000000D+04 -0.1154000508D-02
  0.2280000000D+03 -0.5725002519D-02
  0.6471000000D+02 -0.2331201026D-01
  0.2106000000D+02 -0.6395502813D-01
  0.7495000000D+01 -0.1499810660D+00
  0.2797000000D+01 -0.1272620560D+00
  0.5215000000D+00  0.5445292395D+00
  0.1596000000D+00  0.5804962554D+00
 s    9  1.00
  0.6665000000D+04  0.0000000000D+00
  0.1000000000D+04  0.0000000000D+00
  0.2280000000D+03  0.0000000000D+00
  0.6471000000D+02  0.0000000000D+00
  0.2106000000D+02  0.0000000000D+00
  0.7495000000D+01  0.0000000000D+00
  0.2797000000D+01  0.0000000000D+00
  0.5215000000D+00  0.0000000000D+00
  0.1596000000D+00  0.1000000000D+01
 p    4  1.00
  0.9439000000D+01  0.3810902127D-01
  0.2002000000D+01  0.2094801169D+00
  0.5456000000D+00  0.5085572839D+00
  0.1517000000D+00  0.4688422617D+00
 p    4  1.00
  0.9439000000D+01  0.0000000000D+00
  0.2002000000D+01  0.0000000000D+00
  0.5456000000D+00  0.0000000000D+00
  0.1517000000D+00  0.1000000000D+01
 d    1  1.00
  0.5500000000D+00  0.1000000000D+01
  
  2 0
 s    9  1.00
  0.6665000000D+04  0.6920001793D-03
  0.1000000000D+04  0.5329001381D-02
  0.2280000000D+03  0.2707700701D-01
  0.6471000000D+02  0.1017180264D+00
  0.2106000000D+02  0.2747400712D+00
  0.7495000000D+01  0.4485641162D+00
  0.2797000000D+01  0.2850740738D+00
  0.5215000000D+00  0.1520400394D-01
  0.1596000000D+00 -0.3191000827D-02
 s    9  1.00
  0.6665000000D+04 -0.1460000642D-03
  0.1000000000D+04 -0.1154000508D-02
  0.2280000000D+03 -0.5725002519D-02
  0.6471000000D+02 -0.2331201026D-01
  0.2106000000D+02 -0.6395502813D-01
  0.7495000000D+01 -0.1499810660D+00
  0.2797000000D+01 -0.1272620560D+00
  0.5215000000D+00  0.5445292395D+00
  0.1596000000D+00  0.5804962554D+00
 s    9  1.00
  0.6665000000D+04  0.0000000000D+00
  0.1000000000D+04  0.0000000000D+00
  0.2280000000D+03  0.0000000000D+00
  0.6471000000D+02  0.0000000000D+00
  0.2106000000D+02  0.0000000000D+00
  0.7495000000D+01  0.0000000000D+00
  0.2797000000D+01  0.0000000000D+00
  0.5215000000D+00  0.0000000000D+00
  0.1596000000D+00  0.1000000000D+01
 p    4  1.00
  0.9439000000D+01  0.3810902127D-01
  0.2002000000D+01  0.2094801169D+00
  0.5456000000D+00  0.5085572839D+00
  0.1517000000D+00  0.4688422617D+00
 p    4  1.00
  0.9439000000D+01  0.0000000000D+00
  0.2002000000D+01  0.0000000000D+00
  0.5456000000D+00  0.0000000000D+00
  0.1517000000D+00  0.1000000000D+01
 d    1  1.00
  0.5500000000D+00  0.1000000000D+01
  
  3 0
 s    4  1.00
  0.1301000000D+02  0.1968498999D-01
  0.1962000000D+01  0.1379769298D+00
  0.4446000000D+00  0.4781477569D+00
  0.1220000000D+00  0.5012397451D+00
 s    4  1.00
  0.1301000000D+02  0.0000000000D+00
  0.1962000000D+01  0.0000000000D+00
  0.4446000000D+00  0.0000000000D+00
  0.1220000000D+00  0.1000000000D+01
 p    1  1.00
  0.7270000000D+00  0.1000000000D+01
  
  4 0
 s    4  1.00
  0.1301000000D+02  0.1968498999D-01
  0.1962000000D+01  0.1379769298D+00
  0.4446000000D+00  0.4781477569D+00
  0.1220000000D+00  0.5012397451D+00
 s    4  1.00
  0.1301000000D+02  0.0000000000D+00
  0.1962000000D+01  0.0000000000D+00
  0.4446000000D+00  0.0000000000D+00
  0.1220000000D+00  0.1000000000D+01
 p    1  1.00
  0.7270000000D+00  0.1000000000D+01
  
  5 0
 s    4  1.00
  0.1301000000D+02  0.1968498999D-01
  0.1962000000D+01  0.1379769298D+00
  0.4446000000D+00  0.4781477569D+00
  0.1220000000D+00  0.5012397451D+00
 s    4  1.00
  0.1301000000D+02  0.0000000000D+00
  0.1962000000D+01  0.0000000000D+00
  0.4446000000D+00  0.0000000000D+00
  0.1220000000D+00  0.1000000000D+01
 p    1  1.00
  0.7270000000D+00  0.1000000000D+01
  
  6 0
 s    4  1.00
  0.1301000000D+02  0.1968498999D-01
  0.1962000000D+01  0.1379769298D+00
  0.4446000000D+00  0.4781477569D+00
  0.1220000000D+00  0.5012397451D+00
 s    4  1.00
  0.1301000000D+02  0.0000000000D+00
  0.1962000000D+01  0.0000000000D+00
  0.4446000000D+00  0.0000000000D+00
  0.1220000000D+00  0.1000000000D+01
 p    1  1.00
  0.7270000000D+00  0.1000000000D+01
  
  7 0
 s    4  1.00
  0.1301000000D+02  0.1968498999D-01
  0.1962000000D+01  0.1379769298D+00
  0.4446000000D+00  0.4781477569D+00
  0.1220000000D+00  0.5012397451D+00
 s    4  1.00
  0.1301000000D+02  0.0000000000D+00
  0.1962000000D+01  0.0000000000D+00
  0.4446000000D+00  0.0000000000D+00
  0.1220000000D+00  0.1000000000D+01
 p    1  1.00
  0.7270000000D+00  0.1000000000D+01
  
  8 0
 s    4  1.00
  0.1301000000D+02  0.1968498999D-01
  0.1962000000D+01  0.1379769298D+00
  0.4446000000D+00  0.4781477569D+00
  0.1220000000D+00  0.5012397451D+00
 s    4  1.00
  0.1301000000D+02  0.0000000000D+00
  0.1962000000D+01  0.0000000000D+00
  0.4446000000D+00  0.0000000000D+00
  0.1220000000D+00  0.1000000000D+01
 p    1  1.00
  0.7270000000D+00  0.1000000000D+01
 
 
[MO]
 Sym=      1.1
 Ene=     -11.2379
 Spin= Alpha
 Occup=    2.000000
1 0.003106363740321
2 -0.000938878791183
3 0.001705284762013
4 -0.000000035422781
5 -0.000020191717103
6 -0.000289011937873
7 0.000000084958266
8 0.000013882914091
9 0.000824994170681
10 -0.000107209328115
11 -0.000108648218455
12 0.000215857546571
13 -0.000000001859251
14 0.000000028431470
15 0.000010882334117
16 1.00149921778919
17 0.006237092610004
18 -0.008658604766439
19 0.000006132511752
20 0.002518231570370
21 0.000391993125382
22 -0.000001339845564
23 -0.000539898452985
24 0.000454253946473
25 0.000441208055207
26 0.000268636411430
27 -0.000709844466637
28 -0.000000484704507
29 0.000000116632328
30 0.000053070681729
31 0.000199708446015
32 0.001336340405453
33 0.000396277250549
34 0.000274655855738
35 0.000091054596404
36 0.000199695646949
37 0.001336332062040
38 -0.000394931768051
39 0.000276576620903
40 0.000091063762140
41 -0.003238205463572
42 0.002212999476135
43 -0.000001362482878
44 -0.000562532234324
45 0.000117272165545
46 -0.000111627673952
47 0.000080417501284
48 -0.000032760160864
49 0.000018401228764
50 -0.000075889535418
51 -0.000111564670584
52 0.000080424103384
53 0.000032838849785
54 0.000018250540135
55 -0.000075902287387
56 -0.000170974255703
57 0.000065070721210
58 -0.000000092475393
59 -0.000036778438812
60 -0.000077009074682
 Sym=      2.1
 Ene=     -11.2306
 Spin= Alpha
 Occup=    2.000000
1 1.00156982347597
2 0.005339516487737
3 -0.008587251699244
4 0.000005212498897
5 0.002154090247324
6 -0.000190720685201
7 -0.000001224919579
8 -0.000471455129942
9 -0.000502128944192
10 0.000279982221395
11 0.000436713120947
12 -0.000716695342343
13 0.000000443022127
14 -0.000000009590645
15 -0.000048649882872
16 -0.003614518926568
17 -0.000944710658255
18 0.001767538795055
19 0.000000020441158
20 0.000001712503269
21 0.000284768903939
22 -0.000000043513641
23 0.000010635502782
24 -0.000843617319666
25 -0.000109140846763
26 -0.000108739699315
27 0.000217880546078
28 -0.000000007983778
29 -0.000000018285334
30 -0.000009103666919
31 -0.000113421387957
32 0.000050971502748
33 -0.000037108203046
34 -0.000021800088965
35 0.000075205001058
36 -0.000113507407783
37 0.000050976542607
38 0.000036998426279
39 -0.000021972577108
40 0.000075210696987
41 -0.000090558942595
42 0.000070670391082
43 0.000000108500638
44 0.000042229491638
45 0.000074877644325
46 -0.002470436991771
47 0.002091822783492
48 0.000521807287452
49 -0.000264010596975
50 -0.000110830962042
51 -0.002470811818635
52 0.002091883945030
53 -0.000523027075477
54 -0.000261575478579
55 -0.000110953809158
56 0.000418487824898
57 0.001380819059167
58 0.000001263365582
59 0.000524329989358
60 -0.000092436237006
 Sym=      3.1
 Ene=      -0.8088
 Spin= Alpha
 Occup=    2.000000
1 -0.004111126449144
2 0.055956229556427
3 -0.008204407984937
4 0.000135114876036
5 0.056992969511886
6 -0.009182053363623
7 -0.000019976543438
8 -0.009076618280809
9 -0.001313619948254
10 -0.003023959670767
11 0.000446024050871
12 0.002577935619895
13 0.000009425386923
14 0.000000119409767
15 0.000094296244132
16 -0.021534279494674
17 0.63906133436961
18 -0.13018995222454
19 0.000770948542520
20 0.31654073379375
21 0.097823368575514
22 -0.000141624188601
23 -0.058083079224735
24 -0.014019568579472
25 0.011419638779027
26 -0.008432187526014
27 -0.002987451253013
28 -0.000055487038648
29 0.000015548267451
30 0.006506058766519
31 0.45881856096909
32 -0.16604941004084
33 -0.027567295036999
34 -0.009669368198924
35 -0.003923589988157
36 0.45881575080885
37 -0.16604903477693
38 0.027519887951597
39 -0.009803039470464
40 -0.003924037117551
41 -0.009348432898612
42 -0.038710719991664
43 0.000032187863925
44 0.013247129445202
45 0.000556487992443
46 0.000554004849518
47 -0.002663255536617
48 -0.000914624363436
49 0.001561580762345
50 -0.000552963826233
51 0.000556608034045
52 -0.002662714380807
53 0.000922096134504
54 0.001557348138509
55 -0.000552547471908
56 0.081134113445380
57 -0.028732042335614
58 -0.000010029835931
59 -0.004204473486988
60 0.000168248432776
 Sym=      4.1
 Ene=      -0.6961
 Spin= Alpha
 Occup=    2.000000
1 -0.016521027911441
2 0.48374017422215
3 -0.097403778732509
4 0.001132864472130
5 0.47744908952232
6 -0.074612285226330
7 -0.000206896399215
8 -0.087238147238151
9 0.010842306133147
10 -0.013555764236675
11 0.016521972171184
12 -0.002966207934509
13 0.000082685650068
14 -0.000026108037917
15 -0.010445238760081
16 0.001601708872845
17 -0.096692630925682
18 0.021866601352774
19 -0.000114066169719
20 -0.046845594759578
21 -0.013912923531543
22 0.000025543088595
23 0.010665920067772
24 0.004197964768376
25 -0.002907614643857
26 0.000232579602928
27 0.002675035040929
28 0.000008741122510
29 -0.000007023759355
30 -0.003001119376715
31 -0.070581492639101
32 0.022983874786041
33 0.004020434294947
34 0.001287352018638
35 0.001055027101992
36 -0.070581914813259
37 0.022983140886165
38 -0.004014130104009
39 0.001306886713838
40 0.001055077998525
41 0.005554767418970
42 0.009124321662047
43 -0.000003717994104
44 -0.001540807209043
45 0.000254308258242
46 -0.007046536855701
47 -0.030531377210378
48 -0.004604116092342
49 0.011917724601846
50 -0.000348949439698
51 -0.007047738168970
52 -0.030531942366494
53 0.004660327509621
54 0.011896002234407
55 -0.000347677035403
56 0.70623449703990
57 -0.22106338806250
58 -0.000079983560687
59 -0.033627127656156
60 0.006548071881979
 Sym=      5.1
 Ene=      -0.5542
 Spin= Alpha
 Occup=    2.000000
1 -0.000000046046100
2 0.000000261533676
3 -0.000000721193729
4 0.000605469352967
5 -0.000000929467003
6 -0.000000140692504
7 0.002692906155054
8 -0.000005873820991
9 0.000000503886026
10 0.000000601704347
11 -0.000000651957198
12 0.000000050252850
13 0.000125198336621
14 0.002654076559278
15 -0.000006470726871
16 0.000000015659498
17 -0.000001645208761
18 -0.000000087477738
19 0.63814779467292
20 -0.001550386049702
21 -0.000008439067047
22 -0.11506411103203
23 0.000278979611817
24 0.000001008548705
25 0.000098745700705
26 -0.000098338368631
27 -0.000000407332074
28 0.023370571793952
29 0.013793266775058
30 -0.000033818535449
31 0.54781520841202
32 -0.14668895763574
33 -0.012514135227276
34 -0.014438593281526
35 -0.005302857814017
36 -0.54781661193383
37 0.14669050351121
38 -0.012443950410584
39 0.014499227724498
40 0.005302972325792
41 -0.000000018307968
42 -0.000000256353928
43 0.012323547935977
44 -0.000029940238954
45 -0.000000135153934
46 -0.004557052244407
47 -0.003917650358906
48 0.000151510557826
49 -0.000163062616850
50 -0.000085000514921
51 0.004557659151251
52 0.003917399374847
53 0.000152154969269
54 0.000162217952619
55 0.000084955687852
56 0.000001003997015
57 -0.000000477440618
58 -0.000128568516820
59 0.000000252183540
60 -0.000000033357647
 Sym=      6.1
 Ene=      -0.7245
 Spin= Alpha
 Occup=    1.981086
1 0.008449964188521
2 -0.51257527318074
3 0.12257671227056
4 0.000886823950219
5 0.37397750641841
6 0.074949492485499
7 -0.000173965581153
8 -0.073129329718797
9 -0.013911810746254
10 -0.012889409801492
11 0.011417950567866
12 0.001471459233625
13 0.000066423127048
14 -0.000019102093672
15 -0.007203765708250
16 0.003204426722452
17 -0.16461338895186
18 0.037582396922733
19 0.000626262541778
20 0.25725007691044
21 -0.021506708453560
22 -0.000121718853949
23 -0.049826682495600
24 0.002841393667920
25 0.009136552941955
26 -0.007522300572634
27 -0.001614252369321
28 -0.000046432660789
29 0.000009891180469
30 0.003946791007904
31 0.047779359158946
32 -0.003560970816802
33 -0.000328616480253
34 0.004688101799401
35 -0.000879067323894
36 0.047775037793681
37 -0.003560652107072
38 0.000351391890525
39 0.004686502247151
40 -0.000878946041449
41 -0.32361621089981
42 0.099832538953952
43 -0.000027977444984
44 -0.011549898667795
45 0.002148918626264
46 -0.41929689844329
47 0.14271413038144
48 0.021059699249220
49 -0.005220756267491
50 -0.002930257025890
51 -0.41932247066346
52 0.14272124324633
53 -0.021083869278533
54 -0.005122097057220
55 -0.002935627477477
56 0.12471893681116
57 -0.001974330071491
58 0.000015712696347
59 0.006640463008954
60 0.001543769925156
 Sym=      7.1
 Ene=      -0.6427
 Spin= Alpha
 Occup=    1.979669
1 -0.003111838858756
2 0.27285325314022
3 -0.068187152684183
4 -0.000500541057918
5 -0.20328998333882
6 -0.042036432518875
7 0.000104345404460
8 0.042529242413859
9 0.008770616818165
10 0.008048048112362
11 -0.005358165905386
12 -0.002689882206975
13 -0.000035788610960
14 0.000017126927327
15 0.006526394103635
16 0.003070686745869
17 -0.35035856354019
18 0.087071181427539
19 0.001216334114595
20 0.50148785076876
21 -0.054164034165856
22 -0.000245994795015
23 -0.10126099454725
24 0.010794377273809
25 0.015092042794237
26 -0.017784556083789
27 0.002692513289552
28 -0.000091932292385
29 0.000027742364596
30 0.011549115265468
31 0.083287768904309
32 0.000748327450054
33 -0.000462549009738
34 0.009449910604475
35 -0.000851122092067
36 0.083288391483913
37 0.000747438029859
38 0.000508429743658
39 0.009447532780389
40 -0.000851145772962
41 -0.65347388386411
42 0.19315026666879
43 -0.000056423096188
44 -0.023233663443024
45 0.005266115121155
46 0.22798280151312
47 -0.073895030438220
48 -0.011284462911793
49 0.002591350993446
50 0.001940168541417
51 0.22802815158357
52 -0.073907376533316
53 0.011296761086551
54 0.002539067020352
55 0.001943078900281
56 -0.076544323714836
57 -0.001632786576765
58 -0.000007311289439
59 -0.002934220968993
60 -0.000706494296937
 Sym=      8.1
 Ene=      -0.5456
 Spin= Alpha
 Occup=    1.977568
1 -0.000000450149150
2 0.000021462034240
3 -0.000005444979479
4 0.65255299053103
5 -0.001553755334919
6 0.000065696782246
7 -0.13509683529510
8 0.000321633707432
9 -0.000016631383138
10 -0.000098937171677
11 0.000101407787686
12 -0.000002470616009
13 -0.024955010260439
14 -0.013858396199247
15 0.000030311897698
16 -0.000000513905647
17 -0.000014451646010
18 0.000004467827164
19 -0.016130186058736
20 0.000053417301437
21 -0.000008380639853
22 0.005718863991056
23 -0.000017589881825
24 0.000000883129701
25 -0.000003065878527
26 0.000001845813334
27 0.000001220065193
28 -0.000722556039269
29 -0.003045366984111
30 0.000007854673522
31 -0.019077368363356
32 -0.000061225358154
33 0.000463582911737
34 0.000538681942544
35 0.000261886389529
36 0.019075935076606
37 0.000063348145622
38 0.000460834582868
39 -0.000540185199044
40 -0.000261906700085
41 -0.000021753436521
42 0.000005682394126
43 -0.000466625749236
44 0.000000428885838
45 0.000000246814531
46 0.54882648301812
47 -0.14131100852197
48 -0.008555181566825
49 0.012083775620839
50 0.004279445122164
51 -0.54879003965902
52 0.14129915835612
53 -0.008609069593691
54 -0.012043012219422
55 -0.004281384222054
56 -0.000005812682702
57 -0.000000054553176
58 0.012522205949101
59 -0.000029696731354
60 0.000001246408294
 Sym=      9.1
 Ene=      -0.2958
 Spin= Alpha
 Occup=    1.822507
1 -0.004309021013376
2 0.10826420468815
3 0.047917740555733
4 -0.000056432016072
5 0.004693492545480
6 0.55955548589098
7 -0.000007390246032
8 -0.001859008798415
9 0.038077564327046
10 -0.008292093168196
11 -0.008400539098552
12 0.016692632266748
13 0.000000070182232
14 -0.000003079127811
15 -0.000872450843293
16 -0.004140588208261
17 0.11179120703816
18 0.048587342231912
19 0.000001658945057
20 0.002474611557637
21 -0.55570270949271
22 -0.000002952089448
23 -0.001261637545692
24 -0.043657182899320
25 -0.008521433467660
26 -0.008415714670674
27 0.016937148138334
28 0.000000499549421
29 0.000001896874954
30 0.000570671332647
31 -0.073095107260078
32 0.010978938750862
33 0.002048950555821
34 0.001196250511387
35 -0.011651528331088
36 -0.073098420153402
37 0.010982595419690
38 -0.002043378665296
39 0.001206138015532
40 -0.011651761663981
41 -0.074734912293971
42 0.012470312134406
43 -0.000004711494274
44 -0.001872090240221
45 -0.011154744174367
46 -0.075100382826864
47 0.012394832454579
48 0.001653190161161
49 -0.000927978919495
50 0.011206387134464
51 -0.075087019184823
52 0.012401498780760
53 -0.001660043879484
54 -0.000920069036565
55 0.011206290522148
56 -0.071948784370213
57 0.011038474007817
58 0.000004294124643
59 0.002414620203786
60 0.011675673604296
 Sym=     10.1
 Ene=       0.1496
 Spin= Alpha
 Occup=    0.177760
1 0.013778159053315
2 0.29480999115803
3 0.024153714045066
4 -0.000091882460855
5 -0.001970097942657
6 0.82992945636152
7 0.000015393017612
8 0.003496042150315
9 -0.059261794987705
10 -0.008003445207916
11 -0.011293734102018
12 0.019297179309934
13 -0.000007983833305
14 -0.000020464510490
15 -0.006628137464785
16 -0.012235508130813
17 -0.28803939266963
18 -0.033279596060627
19 0.000018262681967
20 0.003490620052724
21 0.79785032261568
22 -0.000012634655048
23 -0.004590563245307
24 -0.028376733885548
25 0.011778011012542
26 0.008745378418538
27 -0.020523389431080
28 -0.000008688226234
29 -0.000011049043051
30 -0.004402369163392
31 0.042049637619207
32 -0.007982744513871
33 -0.000825546997732
34 -0.000205223241229
35 0.012838744189759
36 0.042045924962297
37 -0.007983987251367
38 0.000824690796825
39 -0.000209032209681
40 0.012838885036703
41 0.041664345970365
42 -0.011483880056197
43 0.000002418377120
44 0.000912697950055
45 0.009401758142354
46 -0.038909922495806
47 0.010531964688566
48 0.000834025654287
49 -0.000572901710437
50 0.009576305938032
51 -0.038942476079950
52 0.010534687723215
53 -0.000839670297350
54 -0.000569566270913
55 0.009575245238005
56 -0.039971025958730
57 0.007678138436907
58 0.000001527608979
59 0.001178214900219
60 0.012850623119723
 Sym=     11.1
 Ene=       0.6548
 Spin= Alpha
 Occup=    0.021578
1 -0.24328214544011
2 -1.63675900869081
3 0.77903581412661
4 0.001811661050721
5 0.85443013101896
6 0.34747726933243
7 -0.000815704438284
8 -0.37959472363758
9 -0.10040268768119
10 -0.053782306272291
11 0.040167976906320
12 0.013614329365971
13 0.000271536623357
14 -0.000080910048830
15 -0.034125017943044
16 -0.007875552585109
17 -0.066205801353062
18 0.015831580672853
19 0.000139774299102
20 0.059107643780659
21 -0.004715514166498
22 -0.000039772956886
23 -0.017872503526353
24 0.018421407386232
25 0.003985849940419
26 -0.006262959747657
27 0.002277109807238
28 -0.000028779690747
29 0.000006133772970
30 0.002965759593847
31 -0.000485076648847
32 -0.004041871918639
33 0.000489280251451
34 0.000649668552534
35 0.000378622775924
36 -0.000477043082746
37 -0.004040375549020
38 -0.000486030144798
39 0.000651591120653
40 0.000378473556249
41 0.075043013112059
42 -0.024851110868717
43 -0.000005505505457
44 -0.002141970804153
45 -0.000793222675194
46 1.04578235348437
47 -0.33101136077366
48 0.020511679334984
49 -0.014250157475991
50 -0.003470580468896
51 1.04556232750388
52 -0.33095578424264
53 -0.020571473534013
54 -0.014150096487127