[Molden Format]
[Molpro variables]
_NUMVAR=  685.0000000000000    
_EV2006= 0.3674930886769165E-01
_EV= 0.3674932534394180E-01
_KJOULE= 0.3808798324128737E-03
_KJOULE/MOL= 0.3808798324128737E-03
_CM= 0.4556335267302901E-05
_CM-1= 0.4556335267302901E-05
_KCAL= 0.1593601117815568E-02
_KCAL/MOL= 0.1593601117815568E-02
_KELVIN2006= 0.3166828861084835E-05
_KELVIN= 0.3166814820820034E-05
_HERTZ2006= 0.1519829850815779E-15
_HERTZ= 0.1519829846011223E-15
_HZ2006= 0.1519829850815779E-15
_HZ= 0.1519829846011223E-15
_TOA2006= 0.5291772490000000    
_TOA= 0.5291772090000000    
_TOANG2006= 0.5291772490000000    
_TOANG= 0.5291772090000000    
_TORAD= 0.1745329251994330E-01
_TOCM=  219474.6306700000    
_TODEBYE=  2.541580000000000    
_TOEV2006=  27.21139610000000    
_TOEV=  27.21138390000000    
_TOHERTZ2006=  6579683899900000.    
_TOHERTZ=  6579683920700000.    
_TOHZ2006=  6579683899900000.    
_TOHZ=  6579683920700000.    
_TOK2006=  315773.3000000000    
_TOK=  315774.7000000000    
_TOKCAL=  627.5096000000000    
_TOKELVIN2006=  315773.3000000000    
_TOKELVIN=  315774.7000000000    
_TOKJ=  2625.500000000000    
_TOKJOULE=  2625.500000000000    
_ANG2006=  1.889725988578923    
_ANG=  1.889726131421507    
_ANGSTROM2006=  1.889725988578923    
_ANGSTROM=  1.889726131421507    
_IGNORE_UNDEF=  2.000000000000000    
_STRICTCHECK=  0.000000000000000    
_SEW_ONEEL=  0.000000000000000    
_CPPDONE=FALSE
_DKROLL_DONE=  0.000000000000000    
_FOCKDONE=  0.000000000000000    
_GRADONE=FALSE
_HESSDONE=FALSE
_INTDONE=TRUE
_SCFDONE=FALSE
_MODUL_CUDA=FALSE
_MODUL_SLATER=FALSE
_MODUL_MRCC=FALSE
_MRCC_EXEC=
_FITC_AO_SAVED=FALSE
_FITC_MO_SAVED=FALSE
_SHARED_FS=TRUE
_LSTYP=SEWARD
_INTYP=INTS
_GEOMTYP=ZMAT
_GRADTYP=ALASKA
_DIRECT=FALSE
_SYNCM=  0.000000000000000    
_BASIS=CC-PVDZ
_ZORIENT=  1.000000000000000    
_NELEC=  10.00000000000000    
_SPIN=  0.000000000000000    
!SPIN=  0.000000000000000    
_QSDSTEP=  0.000000000000000    
_QSDIRC=  0.000000000000000    
_PROGRAM=RS2
_CPUSTEP= 0.3000000000000003E-01
_SYSSTEP= 0.1000000000000001E-01
_WALLSTEP=  1.410000000000000    
!DFMP2=  0.000000000000000    
!DFSCF=  0.000000000000000    
!SCSGRD=  0.000000000000000    
_BASINP=  610.0000000000000    
_CPUTOT= 0.4300000000000000    
_DFTEXFAC=  1.000000000000000    
_DMX=-0.3175548267331980E-06
_DMY=-0.1937737859169299E-05
_DMZ= 0.2517393530790801    
_EMP2= -40.20669650556546    
_ENERGR= -40.07086805832024    
_ENERGU= -40.19817614054757    
_ENERGY= -40.20669650556546    
_ENUC=  11.34406718378818    
_GRADEXFAC=  9999.000000000000    
_GRADMETHOD=TRUE
!GRID_FREEZE= -1.000000000000000    
_ITERATIONS=  5.000000000000000    
_LASTNELEC=  2.000000000000000    
_LASTSPIN=  0.000000000000000    
_LASTSYM=  1.000000000000000    
_MPP_PROG=  1.000000000000000    
_NPROC_MPP=  4.000000000000000    
_NPROC_SMP=  1.000000000000000    
_NUMSTEP=  0.000000000000000    
_ORBITAL=  2141.200000000000    
_PI=  3.141592653589793    
!MCACT=  2.000000000000000    
!MCCLOSED=  4.000000000000000    
!MCFREEZE=  0.000000000000000    
!MCMS2=  0.000000000000000    
!MCNEL=  2.000000000000000    
!MCNSTSYM=  1.000000000000000    
!MCSTATE=  1.000000000000000    
!MCSYM=  1.000000000000000    
!MCWEIGHT=  1.000000000000000    
_SEIG_MIN= 0.1509815677684895E-01
_SEWPROP=TRUE
_STATUS=  1.000000000000000    
_SYSTOT= 0.1300000000000000    
_VERSION=  2010001.000000000    
_WALLTOT=  9.260000000000000    
_DATE=30-Aug-19
_LASTORB=MCSCF
_MACHINE=Linux-2.6.34-12-desktop/tt108(x86_64) 64 bit mpp version
_OUTPUT=/home/carlo/qm/combustion/test_diss/newalg/ch4_ch3_h_vrc_test1/dist_2.6/molpro.xml
_PGROUP=C1
_TIME=04:22:21
_LIBMOL=/programs/molpro2010p/bin/../lib/
!SURFREC=  0.000000000000000    
!POLYREC=  0.000000000000000    
!DIPREC=  0.000000000000000    
!VSCFREC=  0.000000000000000    
!VCIREC=  0.000000000000000    
!PVCIREC=  0.000000000000000    
!VMP2REC=  0.000000000000000    
!VMCSCFREC=  0.000000000000000    
!GAREC=  0.000000000000000    
!SCFORB=  21002.00000000000    
!MCORB=  21412.00000000000    
!CIOCC=  6.000000000000000    
!CICORE=  1.000000000000000    
!CICLOS=  4.000000000000000    
!CIISTSYM=  1.000000000000000    
!CIISTMS2=  0.000000000000000    
!CIISTNEL=  8.000000000000000    
!NEWMOL=  0.000000000000000    
!NEWSYM=  0.000000000000000    
_SLFILES=slscratch
_NGSSTO=  9.000000000000000    
_SIN=SIN
_COS=COS
_TAN=TAN
_ACOS=ACOS
_ASIN=ASIN
_ATAN=ATAN
_COSH=COSH
_SINH=SINH
_TANH=TANH
_ABS=ABS
_MOD=MOD
_ERF=ERF
_REFC=REFC
_ERFC=ERFC
_HYPOT=HYPOT
_J0=J0
_J1=J1
_JN=JN
_GAMMA=GAMMA
_LGAMMA=LGAMMA
_Y0=Y0
_Y1=Y1
_YN=YN
_EXP=EXP
_LOG=LOG
_LOG10=LOG10
_SQRT=SQRT
_INT=INT
_NINT=NINT
_MAX=MAX
_MIN=MIN
_COSMO=  0.000000000000000    
_COSMOIT=  0.000000000000000    
_COSMOES=  0.000000000000000    
_COSMOEDS=  0.000000000000000    
_COSMOEC=  0.000000000000000    
_COSMOEDCORR=  0.000000000000000    
_FEPSI=  1.000000000000000    
_SL_IsMM=  0.000000000000000    
_SL_NSYM=  0.000000000000000    
_SL_System_BitSw=  0.000000000000000    
_SL_Unique_atoms=  0.000000000000000    
_SL_GRAD=  0.000000000000000    
_SL_MAXUPD_Hess=  5.000000000000000    
_SL_N_PRINT_COD=  5.000000000000000    
_SL_PRINT_CODES=  0.000000000000000    
_SL_BasType=  0.000000000000000    
_SL_Energy_Pred=  0.000000000000000    
_SL_New_Coords=  0.000000000000000    
_SL_Total_Nuclea=  0.000000000000000    
_SL_Highest_Mltp=  0.000000000000000    
_SL_Ref_Geom=  0.000000000000000    
!LATTICE= -1.000000000000000    
!NEWLATTICE=  0.000000000000000    
!LATGRAD_VAR=FALSE
!SEW_LATTICE=  1.000000000000000    
!LOCAL=  0.000000000000000    
!SAVEDOM= -1.000000000000000    
!RESTDOM= -1.000000000000000    
!SAVEDOM_HF= -1.000000000000000    
!RESTDOM_HF= -1.000000000000000    
!HESSREC=  0.000000000000000    
!FREQREC=  0.000000000000000    
!NMODREC=  0.000000000000000    
!GTASKS=  0.000000000000000    
!HTASKS=  0.000000000000000    
!THRCHG= 0.1000000000000000    
!DEBUG= -1.000000000000000    
!CFIT_CPHF=  0.000000000000000    
!RDOMAUX_CPHF=  3.000000000000000    
!THRAO_CPHF= 0.1000000000000000E-09
!THRMO_CPHF= 0.1000000000000000E-08
!THROV_CPHF= 0.1000000000000000E-11
!THRSW_CPHF= 0.1000000000000000E-09
!THRPROD_CPHF= 0.1000000000000000E-08
!THRAOPR_CPHF= 0.1000000000000000E-11
!CFIT_SCFGRD=  0.000000000000000    
!RDOMAUX_SCFGRD=  5.000000000000000    
!THRAO_SCFGRD= 0.1000000000000000E-09
!THRMO_SCFGRD= 0.1000000000000000E-08
!THROV_SCFGRD= 0.1000000000000000E-11
!THRSW_SCFGRD= 0.1000000000000000E-09
!THRPROD_SCFGRD= 0.1000000000000000E-08
!THRAOPR_SCFGRD= 0.1000000000000000E-11
!LOCFIT_SCF=  0.000000000000000    
!LOCFIT_MP2= -1.000000000000000    
_RIDOM=  0.000000000000000    
!CC2_METHOD=  0.000000000000000    
_BASIS2006=FALSE
_SVDDEL= -1.000000000000000    
_SVDDELA= -1.000000000000000    
_SVDDELP= -1.000000000000000    
_SVDDELF= -1.000000000000000    
_SVDDELS= -1.000000000000000    
_SVDDEL_ABS= -1.000000000000000    
_SVDDELA_ABS= -1.000000000000000    
_SVDDELP_ABS= -1.000000000000000    
_SVDDELF_ABS= -1.000000000000000    
_SVDDELS_ABS= -1.000000000000000    
_MAXBASIS=  0.000000000000000    
!OPT_CONICAL=  0.000000000000000    
!CLEARSP_JGRID=  0.000000000000000    
RCH1=  1.090813185147955    
RCH2=  1.090815416623134    
RCH3=  1.090817314534779    
AHCC1=  119.3842014842544    
AHCC2=  119.3842827509355    
AHCC3=  94.52656591836251    
B1=  164.4332806448091    
B2= -97.78356222163625    
RCH4=  2.600000000000000    
GX1=-0.3513513299265199E-06
GY1= 0.1649323020422311E-05
GZ1= 0.2780324344835000    
GX2=-0.2626408300223440    
GY2=  2.038056683930049    
GZ2= 0.4407184792231644    
GX3=  1.896326628403386    
GY3=-0.7915876521257508    
GZ3= 0.4407064729763336    
GX4= -1.633686643279216    
GY4= -1.246497087359694    
GZ4= 0.4406893257840296    
GX5= 0.5031735509641866E-05
GY5= 0.8401589090101247E-05
GZ5= -4.635255507204827    
CBSEN= -40.20669650556546    
[Atoms] Angs
C     1    6        -0.0000001859        0.0000008728        0.1471284277
H     2    1        -0.1389835414        1.0784931478        0.2332181748
H     3    1         1.0034928326       -0.4188901444        0.2332118214
H     4    1        -0.8645097383       -0.6596178497        0.2332027475
H     5    1         0.0000026627        0.0000044459       -2.4528715723
[GTO]
  1 0
 s    9  1.00
  0.6665000000D+04  0.6920001793D-03
  0.1000000000D+04  0.5329001381D-02
  0.2280000000D+03  0.2707700701D-01
  0.6471000000D+02  0.1017180264D+00
  0.2106000000D+02  0.2747400712D+00
  0.7495000000D+01  0.4485641162D+00
  0.2797000000D+01  0.2850740738D+00
  0.5215000000D+00  0.1520400394D-01
  0.1596000000D+00 -0.3191000827D-02
 s    9  1.00
  0.6665000000D+04 -0.1460000642D-03
  0.1000000000D+04 -0.1154000508D-02
  0.2280000000D+03 -0.5725002519D-02
  0.6471000000D+02 -0.2331201026D-01
  0.2106000000D+02 -0.6395502813D-01
  0.7495000000D+01 -0.1499810660D+00
  0.2797000000D+01 -0.1272620560D+00
  0.5215000000D+00  0.5445292395D+00
  0.1596000000D+00  0.5804962554D+00
 s    9  1.00
  0.6665000000D+04  0.0000000000D+00
  0.1000000000D+04  0.0000000000D+00
  0.2280000000D+03  0.0000000000D+00
  0.6471000000D+02  0.0000000000D+00
  0.2106000000D+02  0.0000000000D+00
  0.7495000000D+01  0.0000000000D+00
  0.2797000000D+01  0.0000000000D+00
  0.5215000000D+00  0.0000000000D+00
  0.1596000000D+00  0.1000000000D+01
 p    4  1.00
  0.9439000000D+01  0.3810902127D-01
  0.2002000000D+01  0.2094801169D+00
  0.5456000000D+00  0.5085572839D+00
  0.1517000000D+00  0.4688422617D+00
 p    4  1.00
  0.9439000000D+01  0.0000000000D+00
  0.2002000000D+01  0.0000000000D+00
  0.5456000000D+00  0.0000000000D+00
  0.1517000000D+00  0.1000000000D+01
 d    1  1.00
  0.5500000000D+00  0.1000000000D+01
  
  2 0
 s    4  1.00
  0.1301000000D+02  0.1968498999D-01
  0.1962000000D+01  0.1379769298D+00
  0.4446000000D+00  0.4781477569D+00
  0.1220000000D+00  0.5012397451D+00
 s    4  1.00
  0.1301000000D+02  0.0000000000D+00
  0.1962000000D+01  0.0000000000D+00
  0.4446000000D+00  0.0000000000D+00
  0.1220000000D+00  0.1000000000D+01
 p    1  1.00
  0.7270000000D+00  0.1000000000D+01
  
  3 0
 s    4  1.00
  0.1301000000D+02  0.1968498999D-01
  0.1962000000D+01  0.1379769298D+00
  0.4446000000D+00  0.4781477569D+00
  0.1220000000D+00  0.5012397451D+00
 s    4  1.00
  0.1301000000D+02  0.0000000000D+00
  0.1962000000D+01  0.0000000000D+00
  0.4446000000D+00  0.0000000000D+00
  0.1220000000D+00  0.1000000000D+01
 p    1  1.00
  0.7270000000D+00  0.1000000000D+01
  
  4 0
 s    4  1.00
  0.1301000000D+02  0.1968498999D-01
  0.1962000000D+01  0.1379769298D+00
  0.4446000000D+00  0.4781477569D+00
  0.1220000000D+00  0.5012397451D+00
 s    4  1.00
  0.1301000000D+02  0.0000000000D+00
  0.1962000000D+01  0.0000000000D+00
  0.4446000000D+00  0.0000000000D+00
  0.1220000000D+00  0.1000000000D+01
 p    1  1.00
  0.7270000000D+00  0.1000000000D+01
  
  5 0
 s    4  1.00
  0.1301000000D+02  0.1968498999D-01
  0.1962000000D+01  0.1379769298D+00
  0.4446000000D+00  0.4781477569D+00
  0.1220000000D+00  0.5012397451D+00
 s    4  1.00
  0.1301000000D+02  0.0000000000D+00
  0.1962000000D+01  0.0000000000D+00
  0.4446000000D+00  0.0000000000D+00
  0.1220000000D+00  0.1000000000D+01
 p    1  1.00
  0.7270000000D+00  0.1000000000D+01
 
 
[MO]
 Sym=      1.1
 Ene=     -11.2509
 Spin= Alpha
 Occup=    2.000000
1 1.00129949103981
2 0.007470152732323
3 -0.007661655910856
4 0.000000002060234
5 0.000000002104845
6 0.000255500289121
7 -0.000000005298492
8 0.000000008220261
9 -0.000039534299573
10 0.000357518982943
11 0.000357560577652
12 -0.000715079560595
13 -0.000000006780920
14 0.000000004930043
15 0.000000008769609
16 -0.000547706803748
17 0.001472098089238
18 -0.000062916871290
19 0.000488224875693
20 0.000066871901861
21 -0.000547664491307
22 0.001472075083931
23 0.000454268805876
24 -0.000189618304337
25 0.000066866659061
26 -0.000547660738404
27 0.001472065864335
28 -0.000391355937118
29 -0.000298593578648
30 0.000066862681006
31 -0.000164525013210
32 0.000337953128480
33 -0.000000000010389
34 -0.000000000001559
35 0.000149363107547
 Sym=      2.1
 Ene=      -0.9042
 Spin= Alpha
 Occup=    2.000000
1 -0.025385541873540
2 0.76285920968859
3 -0.14489602149757
4 0.000000591702195
5 -0.000000242554604
6 0.041285642616089
7 -0.000000370193682
8 0.000000176586778
9 -0.007916853942072
10 0.002054748657848
11 0.002054830097132
12 -0.004109578754980
13 -0.000000047044390
14 0.000000033364350
15 0.000000056915410
16 0.34641039508236
17 -0.14450810409692
18 0.003572476655764
19 -0.027721765611596
20 -0.001036644276427
21 0.34640932006832
22 -0.14450726994239
23 -0.025793839993542
24 0.010767169225780
25 -0.001036465517329
26 0.34640763986674
27 -0.14450657456843
28 0.022221325029860
29 0.016954756386659
30 -0.001036220458270
31 0.008301335012004
32 -0.001230179716938
33 -0.000000000127394
34 -0.000000000627658
35 0.000769959987578
 Sym=      3.1
 Ene=      -0.5743
 Spin= Alpha
 Occup=    2.000000
1 0.000000050291531
2 -0.000001025204371
3 0.000000439516800
4 0.10650557710035
5 -0.63443579520695
6 -0.000004191190268
7 -0.019677282919756
8 0.11721390159072
9 0.000000806492821
10 0.019996179807671
11 -0.019996052815857
12 -0.000000126991814
13 0.005118701127159
14 0.000960147465200
15 -0.005718821858155
16 -0.63424981462150
17 0.18150438810725
18 -0.002413192708491
19 0.022424370153727
20 0.002199350723003
21 0.33809734399276
22 -0.096753790292226
23 -0.015131506186372
24 -0.005045727813114
25 -0.001172401279520
26 0.29615449275837
27 -0.084750921071877
28 0.015017624193308
29 -0.002324914558587
30 -0.001026828986688
31 0.000000125445296
32 -0.000000060406167
33 0.000096271480041
34 -0.000573480984889
35 0.000000002341169
 Sym=      4.1
 Ene=      -0.5743
 Spin= Alpha
 Occup=    2.000000
1 -0.000000009632948
2 -0.000000650665313
3 -0.000000420220878
4 0.63443546999139
5 0.10650520238818
6 0.000003205023529
7 -0.11721164759012
8 -0.019676724214496
9 -0.000000643414645
10 0.004433036269785
11 -0.004433100229738
12 0.000000063959953
13 -0.023089964588922
14 0.005718517464176
15 0.000959886947012
16 0.024215329974939
17 -0.006929751104567
18 0.012388788708732
19 0.000728479800047
20 -0.000083912862015
21 0.53716820551509
22 -0.15372100346502
23 -0.015081266217491
24 0.013446891078169
25 -0.001862519072227
26 -0.56138424694653
27 0.16065071412043
28 -0.012360490752386
29 -0.016702434399186
30 0.001946342018865
31 -0.000000116533166
32 0.000000036790274
33 0.000573494368720
34 0.000096276135435
35 -0.000000007147099
 Sym=      5.1
 Ene=      -0.2390
 Spin= Alpha
 Occup=    1.490485
1 0.000526952332304
2 -0.026134645800428
3 -0.021784216023634
4 -0.000002339553216
5 -0.000004356561233
6 0.56223945450775
7 -0.000000245971216
8 -0.000000533930620
9 0.066040785154845
10 0.004231173528007
11 0.004231218803036
12 -0.008462392331043
13 0.000000002215838
14 0.000000065711733
15 0.000000037985699
16 0.040318589762295
17 -0.011024069907478
18 0.000195910588062
19 -0.001520730823939
20 0.012699837224680
21 0.040318421094658
22 -0.011024067354660
23 -0.001414940307903
24 0.000590514240553
25 0.012699766956271
26 0.040318758080846
27 -0.011024029226570
28 0.001218888314066
29 0.000929938661760
30 0.012699765553213
31 -0.64018121872760
32 -0.044255709595473
33 -0.000000000471870
34 0.000000001024769
35 0.000302752776647
 Sym=      6.1
 Ene=      -0.0309
 Spin= Alpha
 Occup=    0.509515
1 0.002976550028788
2 -0.085998311991325
3 -0.048078155163898
4 -0.000002564527540
5 -0.000004774233694
6 0.69462704133424
7 -0.000000303360647
8 -0.000000637425936
9 0.079960086087011
10 0.003413005203276
11 0.003413037793009
12 -0.006826042996286
13 -0.000000008628170
14 0.000000079687221
15 0.000000044519107
16 0.017585364946581
17 -0.003134422093850
18 -0.000021543926908
19 0.000166691384139
20 0.013875944650683
21 0.017584810833415
22 -0.003134415238371
23 0.000155159226864
24 -0.000064897087483
25 0.013875846891752
26 0.017584444422407
27 -0.003134345140243
28 -0.000133776957825
29 -0.000102142371092
30 0.013875829750160
31 0.81276112956873
32 -0.064811035013816
33 -0.000000001899419
34 -0.000000006391681
35 -0.001346816916501
 Sym=      7.1
 Ene=       0.1997
 Spin= Alpha
 Occup=    0.000000
1 -0.081924137565638
2 0.21150786687516
3 2.06121499052633
4 -0.000000844574666
5 -0.000002158678956
6 0.070211625829896
7 -0.000000527450808
8 -0.000005864175104
9 0.077762694062139
10 0.012091125767837
11 0.012091785286516
12 -0.024182911054353
13 -0.000000105119141
14 0.000000183411247
15 0.000000263546594
16 -0.064729810962241
17 -1.00537657817679
18 -0.002144691613643
19 0.016642050301410
20 0.003482995663959
21 -0.064728346485743
22 -1.00537711790568
23 0.015484684311168
24 -0.006463631540841
25 0.003482832400197
26 -0.064729155279034
27 -1.00537844063435
28 -0.013340134524212
29 -0.010178199713529
30 0.003482671698942
31 0.094887159436090
32 -0.012940221244677
33 0.000000022661287
34 0.000000070793477
35 -0.002168785482813
 Sym=      8.1
 Ene=       0.2665
 Spin= Alpha
 Occup=    0.000000
1 -0.000000004953927
2 0.000001378602775
3 0.000008446068053
4 0.20331407087717
5 0.40250405887605
6 0.000003778909729
7 0.55198037670401
8 1.09278174182058
9 0.000010772090233
10 -0.013090560140375
11 0.013090399254840
12 0.000000160885535
13 -0.017283714149626
14 0.003588747184384
15 0.007105313470658
16 -0.025952108738730
17 -1.77259094655984
18 -0.000506700437752
19 0.022270966814472
20 0.000684383953917
21 -0.002268634594626
22 -0.15470354664987
23 0.003388530705136
24 0.003098403078191
25 0.000059766459555
26 0.028219186966075
27 1.92728675077441
28 0.018044395419440
29 0.016058374251207
30 -0.000743770116880
31 -0.000000712699319
32 0.000000561990527
33 -0.001291162752232
34 -0.002556100397583
35 0.000000006603089
 Sym=      9.1
 Ene=       0.2665
 Spin= Alpha
 Occup=    0.000000
1 -0.000000129883486
2 -0.000000990005617
3 0.000001490883543
4 0.40250514841373
5 -0.20331282575419
6 0.000000060406943
7 1.09277311416657
8 -0.55198884583878
9 0.000000142335351
10 0.014968367033797
11 -0.014968140802790
12 -0.000000226231006
13 -0.015115453641334
14 0.007105106553335
15 -0.003589231905117
16 0.017599402989572
17 1.20204825155529
18 0.005348145760723
19 -0.014457663384065
20 -0.000464086517612
21 -0.031277559080724
22 -2.13612234842388
23 0.024520027948642
24 -0.010562206130722
25 0.000824602154431
26 0.013680819047857
27 0.93406957925017
28 0.011559936996623
29 0.004093879063983
30 -0.000360510106602
31 0.000000351619784
32 -0.000000241734829
33 -0.002556052504304
34 0.001291092041576
35 -0.000000028017819
 Sym=     10.1
 Ene=       0.6092
 Spin= Alpha
 Occup=    0.000000
1 0.000000076918303
2 -0.000000417605690
3 0.000002916981120
4 -0.44381763388589
5 -0.033884842680105
6 -0.000000394129377
7 1.62600117254449
8 0.12414116629324
9 0.000004877202596
10 -0.032873680840764
11 0.032874567608197
12 -0.000000886767433
13 0.11920750655897
14 -0.014847326409050
15 -0.001132914264625
16 0.069053397591956
17 -0.025035549723422
18 0.069251036356400
19 0.009133191296204
20 0.000272835748196
21 -1.18435195720555
22 0.42939949352503
23 0.008965660833734
24 0.030693532229330
25 -0.004671821879105
26 1.11530906473401
27 -0.40437610934759
28 0.020435331577983
29 -0.032294794409815
30 0.004399711094548
31 0.000004457954416
32 -0.000004075701086
33 0.029147385159912
34 0.002225352641161
35 -0.000000299410692
 Sym=     11.1
 Ene=       0.6092
 Spin= Alpha
 Occup=    0.000000
1 -0.000003745058503
2 -0.000008484033299
3 0.000024826335842
4 0.033885727212709
5 -0.44382013505343
6 -0.000006825111892
7 -0.12415007908294
8 1.62604014379792
9 0.000023629855582
10 0.10323411224479
11 -0.10323903450488
12 0.000004922260088
13 0.037960289578992
14 0.001134387526608
15 -0.014849089800308
16 -1.32773609259426
17 0.48135376256567
18 0.004111983117937
19 -0.003484613759552
20 -0.005238299694629
21 0.60402815226070
22 -0.21896818680466
23 0.025671179066633
24 0.056805236548363
25 0.002383352039862
26 0.72362823518739
27 -0.26233311393652
28 -0.037315599513985
29 0.045335720283057
30 0.002854849554705
31 -0.000033200713964
32 0.000038110656229
33 -0.002225443994419
34 0.029147762539434
35 0.000000272981406
 Sym=     12.1
 Ene=       0.6554
 Spin= Alpha
 Occup=    0.000000
1 -0.045446968376204
2 -0.004611264418224
3 0.32692580907583
4 -0.000003807289808
5 0.000011255643228
6 -0.10120400306172
7 0.000013237045568
8 -0.000050002876926
9 0.42033320458076
10 -0.077478552486572
11 -0.077474095569298
12 0.15495264805587
13 -0.000000851241235
14 -0.000001021951295
15 -0.000001084568689
16 -0.61494951141433
17 0.35921686165659
18 0.008204488713590
19 -0.063664665963036
20 -0.012411355501821
21 -0.61501016673186
22 0.35923056737298
23 -0.059237752664343
24 0.024725441492681
25 -0.012411531962127
26 -0.61500651748755
27 0.35923579806341
28 0.051034321243608
29 0.038936169095934
30 -0.012411250540443
31 -1.70580389211102
32 1.94426061406004
33 0.000000208722012
34 -0.000000938274174
35 0.000551506446135
 Sym=     13.1
 Ene=       0.7290
 Spin= Alpha
 Occup=    0.000000
1 -0.054289151351934
2 -0.032963213477468
3 0.35668802374073
4 0.000002471401345
5 0.000012803197286
6 -1.13973466015577
7 0.000001813709051
8 -0.000028498200042
9 1.31880467692386
10 -0.057861505646446
11 -0.057862051485372
12 0.11572355713182
13 0.000000081453059
14 -0.000000867293756
15 -0.000001288662488
16 -0.57689228782038
17 0.41234264042881
18 0.005238706996990
19 -0.040649472159886
20 -0.031447017975240
21 -0.57690977161380
22 0.41233921574118
23 -0.037821984302901
24 0.015787693783113
25 -0.031446394451504
26 -0.57690872727918
27 0.41234420971036
28 0.032584165393089
29 0.024860768274225
30 -0.031445483592782
31 0.97957313839361
32 -0.97396206284266
33 0.000000054811964
34 -0.000000480192225
35 -0.026445804161273
 Sym=     14.1
 Ene=       0.7860
 Spin= Alpha
 Occup=    0.000000
1 -0.056379869625522
2 -0.004908935163362
3 0.093565338227086
4 -0.000007508122269
5 -0.000002640594291
6 0.94282948689261
7 0.000014519954069
8 -0.000010343436755
9 -1.24184501108610
10 -0.096026983271708
11 -0.096029727489134
12 0.19205671076084
13 -0.000000267028419
14 -0.000001500571053
15 -0.000002339307142
16 -0.77772341357500
17 0.72083308637850
18 0.012233224152324
19 -0.094929900221710
20 0.035417947782506
21 -0.77774033181526
22 0.72082519145552
23 -0.088326662613019
24 0.036868815490126
25 0.035418460214294
26 -0.77774365061634
27 0.72083792790978
28 0.076093863175819
29 0.058057806875470
30 0.035419286072406
31 0.86010322550560
32 -1.24580062758195
33 -0.000000023997629
34 -0.000000570657196
35 0.14297091809861
 Sym=     15.1
 Ene=       0.8890
 Spin= Alpha
 Occup=    0.000000
1 -0.000001865427686
2 -0.000007081200154
3 0.000008892811711
4 1.22406762769343
5 0.28486597872712
6 0.000007941178126
7 -2.25112990421354
8 -0.52388521195719
9 -0.000013767558325
10 -0.044598294821255
11 0.044597473349103
12 0.000000821472152
13 0.32777660778876
14 -0.045353055022351
15 -0.010553452710372
16 -0.060833324951806
17 0.20136156359558
18 0.071223613354842
19 -0.019517260080627
20 -0.002639755958423
21 -0.49206477532265
22 1.62882633947783
23 -0.19703247972280
24 0.12561912489229
25 -0.021355193767085
26 0.55289098095774
27 -1.83018485672829
28 -0.18859217058953
29 -0.17926972576008
30 0.023993387819644
31 -0.000000337379961
32 -0.000000510878262
33 -0.013096744974537
34 -0.003047746637130
35 0.000000860957410
 Sym=     16.1
 Ene=       0.8890
 Spin= Alpha
 Occup=    0.000000
1 0.000002012291735
2 0.000008580464602
3 -0.000011484091063
4 0.28486470063159
5 -1.22406495854740
6 -0.000007548744062
7 -0.52388399116688
8 2.25113409374495
9 0.000013309255969
10 -0.28386173663043
11 0.28386083322175
12 0.000000903408682
13 -0.051495813514172
14 -0.010556921358391
15 0.045358220252852
16 0.60330648404730
17 -1.99706320094387
18 -0.029261698413943
19 0.28082645591660
20 0.026185182850563
21 -0.35433838478895
22 1.17292242869526
23 -0.17439679780629
24 0.012569414519773
25 -0.015378530567793
26 -0.24897762023247
27 0.82415510767838
28 0.13049040415470
29 0.021008647370185
30 -0.010804544112302
31 0.000004422366262
32 -0.000004927678814
33 -0.003048069694165
34 0.013096974956017
35 -0.000000278589139
 Sym=     17.1
 Ene=       1.0544
 Spin= Alpha
 Occup=    0.000000
1 0.78543005175719
2 3.56942114655713
3 -5.96768713915281
4 0.000001013082923
5 -0.000000885138650
6 0.022929708859613
7 -0.000004878593276
8 0.000005723419506
9 -0.12783831564989
10 -0.015012196455243
11 -0.015020850765313
12 0.030033047220556
13 0.000002157317039
14 -0.000000194423598
15 -0.000001189089054
16 0.14046934151504
17 0.85010200612870
18 0.022850724425439
19 -0.17731637253903
20 -0.031192430382887
21 0.14047315563745
22 0.85009643931647
23 -0.16498353903412
24 0.068869548795905
25 -0.031190442333777
26 0.14047379006962
27 0.85008768730593
28 0.14213260211106
29 0.10844646894373
30 -0.031188999239451
31 -0.024909772870643
32 0.10556084515810
33 -0.000000118398104
34 -0.000000088034067
35 -0.17159441794558
 Sym=     18.1
 Ene=       1.2062
 Spin= Alpha
 Occup=    0.000000
1 -0.000000691327138
2 -0.000003068200856
3 0.000004774332729
4 -0.001044076856379
5 0.019462764244633
6 0.000000634874823
7 -0.002365639066096
8 0.044093881984384
9 -0.000000738211755
10 -0.072842860594094
11 0.072849199632978
12 -0.000006339038884
13 -0.028891479023678
14 0.033176917796518
15 -0.61845668837765
16 -0.053319876493728
17 0.015228971918263
18 -0.008259729766235
19 0.019642004845456
20 -0.40498057233416
21 0.023210337712654
22 -0.006630352566432
23 -0.034724516938198
24 -0.059981230224449
25 0.17629065420828
26 0.030109315278249
27 -0.008600966729301
28 0.047459897164218
29 -0.043088642997721
30 0.22869385658620
31 -0.000002325008850
32 0.000002806320404
33 -0.001457990598373
34 0.027178633859299
35 -0.000000531821667
 Sym=     19.1
 Ene=       1.2062
 Spin= Alpha
 Occup=    0.000000
1 0.000000065395717
2 0.000000241416176
3 -0.000000408404434
4 0.019462190011380
5 0.001044082383532
6 0.000000930432437
7 0.044092624022963
8 0.002365195632374
9 -0.000000304164891
10 0.025026761093576
11 -0.025021977748391
12 -0.000004783345185
13 -0.084104651056625
14 -0.61846001551816
15 -0.033178444099756
16 0.003983616314212
17 -0.001137939326467
18 -0.075257166544266
19 -0.011245148086761
20 0.030254187003082
21 -0.048166086447595
22 0.013757445278492
23 0.004363089018196
24 -0.037703342432110
25 -0.36585260547092
26 0.044183250995996
27 -0.012620142079564
28 -0.012532608791751
29 0.044473098378461
30 0.33559820144106
31 -0.000001418695587
32 0.000001875277740
33 0.027178795972627
34 0.001458055959841
35 -0.000000805567860
 Sym=     20.1
 Ene=       1.5233
 Spin= Alpha
 Occup=    0.000000
1 0.000000597128330
2 0.000002711809483
3 -0.000004960995934
4 -0.006343413484856
5 0.069406293924661
6 0.000000416757387
7 -0.007926365822125
8 0.086744587890914
9 0.000000320079009
10 -0.087112732868335
11 0.087110992644277
12 0.000001740224058
13 -0.030384591640412
14 -0.002041060690221
15 0.022328744859012
16 -0.19830305766866
17 0.056842407489830
18 0.001907486406416
19 -0.045547336385487
20 0.043057937775717
21 0.092790109924002
22 -0.026596956986734
23 -0.016524118193296
24 -0.094752340157301
25 -0.020148498894639
26 0.10551345102130
27 -0.030242527961628
28 0.035307896319707
29 -0.086113117951476
30 -0.022910946648476
31 0.000000725736857
32 -0.000000855929868
33 -0.088932922494400
34 0.97314270130418
35 -0.000000242529501
 Sym=     21.1
 Ene=       1.5233
 Spin= Alpha
 Occup=    0.000000
1 0.000000258169910
2 0.000001226114424
3 -0.000001840067241
4 0.069405653902613
5 0.006342239601736
6 0.000000378285795
7 0.086734652797195
8 0.007927438800063
9 0.000000183585030
10 0.026312350967256
11 -0.026312938225028
12 0.000000587257772
13 -0.10058548251401
14 0.022326973251356
15 0.002039906033185
16 0.007345885815602
17 -0.002106063833939
18 -0.10539662274495
19 -0.011885917606600
20 -0.001595564514811
21 -0.17539918689649
22 0.050277608379383
23 -0.056185285796618
24 -0.030312342818755
25 0.038085746989445
26 0.16805315720557
27 -0.048170288946828
28 -0.064824265114887
29 0.021507610330558
30 -0.036491213651442
31 0.000000382024165
32 -0.000000455757158
33 0.97314420289108
34 0.088933032525677
35 0.000000101151498
 Sym=     22.1
 Ene=       1.6113
 Spin= Alpha
 Occup=    0.000000
1 -0.000000009834220
2 -0.000000041587829
3 0.000000067890507
4 0.000002729105854
5 0.000001237656636
6 0.000000018680205
7 -0.000042575854808
8 -0.000011643035924
9 -0.000000015929473
10 -0.000002182756093
11 0.000002182701112
12 0.000000000054982
13 0.000019166379397
14 -0.000002591768393
15 -0.000000604040461
16 0.000005625415473
17 -0.000000755842430
18 0.58939279184924
19 0.075954458202854
20 0.000002315414226
21 0.000038539934387
22 -0.000009892782016
23 -0.22890283247689
24 -0.54838279489505
25 -0.000008299812462
26 -0.000044196621028
27 0.000010646611501
28 -0.36045578338993
29 0.47243687140540
30 0.000005958416018
31 0.000000007030230
32 -0.000000012219865
33 0.000016325518148
34 0.000004190000452
35 -0.000000040871841
 Sym=     23.1
 Ene=       1.6121
 Spin= Alpha
 Occup=    0.000000
1 0.22571060127485
2 0.95576481836920
3 -1.56495096005567
4 0.000000640642598
5 0.000000512016021
6 -0.42089418002711
7 -0.000004128848372
8 -0.000006881508566
9 0.35556602425203
10 0.006497746517356
11 0.006491792318851
12 -0.012989538836207
13 0.000003264350044
14 0.000000006630992
15 -0.000000085687247
16 0.22558221631531
17 0.028949650274745
18 0.003220575700071
19 -0.024978894166602
20 0.19536593024786
21 0.22557376793039
22 0.028952180197622
23 -0.023240875907106
24 0.009707003469336
25 0.19536596136482
26 0.22556465309621
27 0.028954279018014
28 0.020021811306049
29 0.015281089166929
30 0.19536887466634
31 -0.16911801898972
32 0.28652853586867
33 0.000000650209180
34 0.000002356354762
35 0.92250276926620
 Sym=     24.1
 Ene=       1.7244
 Spin= Alpha
 Occup=    0.000000
1 0.000002140227426
2 0.000010278964317
3 -0.000016734713515
4 0.000216268478929
5 -0.045191349497327
6 -0.000006042173514
7 -0.005603263756946
8 1.16820442861940
9 0.000012327643312
10 -0.39010037252599
11 0.39010195280337
12 -0.000001580277380