 Entering Gaussian System, Link 0=g09
 Input=run.inp
 Output=run.out
 Initial command:
 /soft/gaussian/09-e.01/g09/l1.exe "/blues/gpfs/home/elliott/Packages/PACC/moldriver/thermodriver/rundir/SPC/H2O/XLYOFNOQVPJJNP/0/1/UHFFFAOYSA-N/ezvlpJR/RUN/HESS/A00/Gau-14023.inp" -scrdir="/blues/gpfs/home/elliott/Packages/PACC/moldriver/thermodriver/rundir/SPC/H2O/XLYOFNOQVPJJNP/0/1/UHFFFAOYSA-N/ezvlpJR/RUN/HESS/A00/"
 Entering Link 1 = /soft/gaussian/09-e.01/g09/l1.exe PID=     14024.
  
 Copyright (c) 1988,1990,1992,1993,1995,1998,2003,2009,2015,
            Gaussian, Inc.  All Rights Reserved.
  
 This is part of the Gaussian(R) 09 program.  It is based on
 the Gaussian(R) 03 system (copyright 2003, Gaussian, Inc.),
 the Gaussian(R) 98 system (copyright 1998, Gaussian, Inc.),
 the Gaussian(R) 94 system (copyright 1995, Gaussian, Inc.),
 the Gaussian 92(TM) system (copyright 1992, Gaussian, Inc.),
 the Gaussian 90(TM) system (copyright 1990, Gaussian, Inc.),
 the Gaussian 88(TM) system (copyright 1988, Gaussian, Inc.),
 the Gaussian 86(TM) system (copyright 1986, Carnegie Mellon
 University), and the Gaussian 82(TM) system (copyright 1983,
 Carnegie Mellon University). Gaussian is a federally registered
 trademark of Gaussian, Inc.
  
 This software contains proprietary and confidential information,
 including trade secrets, belonging to Gaussian, Inc.
  
 This software is provided under written license and may be
 used, copied, transmitted, or stored only in accord with that
 written license.
  
 The following legend is applicable only to US Government
 contracts under FAR:
  
                    RESTRICTED RIGHTS LEGEND
  
 Use, reproduction and disclosure by the US Government is
 subject to restrictions as set forth in subparagraphs (a)
 and (c) of the Commercial Computer Software - Restricted
 Rights clause in FAR 52.227-19.
  
 Gaussian, Inc.
 340 Quinnipiac St., Bldg. 40, Wallingford CT 06492
  
  
 ---------------------------------------------------------------
 Warning -- This program may not be used in any manner that
 competes with the business of Gaussian, Inc. or will provide
 assistance to any competitor of Gaussian, Inc.  The licensee
 of this program is prohibited from giving any competitor of
 Gaussian, Inc. access to this program.  By using this program,
 the user acknowledges that Gaussian, Inc. is engaged in the
 business of creating and licensing software in the field of
 computational chemistry and represents and warrants to the
 licensee that it is not a competitor of Gaussian, Inc. and that
 it will not use this program in any manner prohibited above.
 ---------------------------------------------------------------
  

 Cite this work as:
 Gaussian 09, Revision E.01,
 M. J. Frisch, G. W. Trucks, H. B. Schlegel, G. E. Scuseria, 
 M. A. Robb, J. R. Cheeseman, G. Scalmani, V. Barone, B. Mennucci, 
 G. A. Petersson, H. Nakatsuji, M. Caricato, X. Li, H. P. Hratchian, 
 A. F. Izmaylov, J. Bloino, G. Zheng, J. L. Sonnenberg, M. Hada, 
 M. Ehara, K. Toyota, R. Fukuda, J. Hasegawa, M. Ishida, T. Nakajima, 
 Y. Honda, O. Kitao, H. Nakai, T. Vreven, J. A. Montgomery, Jr., 
 J. E. Peralta, F. Ogliaro, M. Bearpark, J. J. Heyd, E. Brothers, 
 K. N. Kudin, V. N. Staroverov, T. Keith, R. Kobayashi, J. Normand, 
 K. Raghavachari, A. Rendell, J. C. Burant, S. S. Iyengar, J. Tomasi, 
 M. Cossi, N. Rega, J. M. Millam, M. Klene, J. E. Knox, J. B. Cross, 
 V. Bakken, C. Adamo, J. Jaramillo, R. Gomperts, R. E. Stratmann, 
 O. Yazyev, A. J. Austin, R. Cammi, C. Pomelli, J. W. Ochterski, 
 R. L. Martin, K. Morokuma, V. G. Zakrzewski, G. A. Voth, 
 P. Salvador, J. J. Dannenberg, S. Dapprich, A. D. Daniels, 
 O. Farkas, J. B. Foresman, J. V. Ortiz, J. Cioslowski, 
 and D. J. Fox, Gaussian, Inc., Wallingford CT, 2013.
 
 ******************************************
 Gaussian 09:  ES64L-G09RevE.01 30-Nov-2015
                10-Sep-2019 
 ******************************************
 %mem=20GB
 %NProcShared=10
 Will use up to   10 processors via shared memory.
 -------------------------------------------------------------------
 #P b3lyp/6-31g* # SCF=(xqc) # Freq=() # IOp(7/33=1) # int=ultrafine
 -------------------------------------------------------------------
 1/10=4,30=1,38=1/1,3;
 2/12=2,17=6,18=5,40=1/2;
 3/5=1,6=6,7=1,11=2,16=1,25=1,30=1,71=2,74=-5,75=-5,140=1/1,2,3;
 4//1;
 5/5=2,8=3,13=1,38=5,98=1/2,8;
 8/6=4,10=90,11=11/1;
 11/6=1,8=1,9=11,15=111,16=1/1,2,10;
 10/6=1/2;
 6/7=2,8=2,9=2,10=2,18=1,28=1/1;
 7/8=1,10=1,25=1,33=1/1,2,3,16;
 1/10=4,30=1/3;
 99//99;
 Leave Link    1 at Tue Sep 10 12:26:09 2019, MaxMem=  2684354560 cpu:         0.8
 (Enter /soft/gaussian/09-e.01/g09/l101.exe)
 --------
 comment:
 --------
 Symbolic Z-matrix:
 Charge =  0 Multiplicity = 1
 O                     0.        0.11979   0. 
 H                     0.76119  -0.47915   0. 
 H                    -0.76119  -0.47915   0. 
 
 NAtoms=      3 NQM=        3 NQMF=       0 NMMI=      0 NMMIF=      0
                NMic=       0 NMicF=      0.
                    Isotopes and Nuclear Properties:
 (Nuclear quadrupole moments (NQMom) in fm**2, nuclear magnetic moments (NMagM)
  in nuclear magnetons)

  Atom         1           2           3
 IAtWgt=          16           1           1
 AtmWgt=  15.9949146   1.0078250   1.0078250
 NucSpn=           0           1           1
 AtZEff=   0.0000000   0.0000000   0.0000000
 NQMom=    0.0000000   0.0000000   0.0000000
 NMagM=    0.0000000   2.7928460   2.7928460
 AtZNuc=   8.0000000   1.0000000   1.0000000
 Leave Link  101 at Tue Sep 10 12:26:09 2019, MaxMem=  2684354560 cpu:         0.5
 (Enter /soft/gaussian/09-e.01/g09/l103.exe)

 GradGradGradGradGradGradGradGradGradGradGradGradGradGradGradGradGradGrad
 Berny optimization.
 Initialization pass.
 Trust Radius=3.00D-01 FncErr=1.00D-07 GrdErr=1.00D-07
 Number of steps in this run=      2 maximum allowed number of steps=      2.
 GradGradGradGradGradGradGradGradGradGradGradGradGradGradGradGradGradGrad

 Leave Link  103 at Tue Sep 10 12:26:09 2019, MaxMem=  2684354560 cpu:         0.1
 (Enter /soft/gaussian/09-e.01/g09/l202.exe)
                          Input orientation:                          
 ---------------------------------------------------------------------
 Center     Atomic      Atomic             Coordinates (Angstroms)
 Number     Number       Type             X           Y           Z
 ---------------------------------------------------------------------
      1          8           0        0.000000    0.119788    0.000000
      2          1           0        0.761186   -0.479154    0.000000
      3          1           0       -0.761186   -0.479154    0.000000
 ---------------------------------------------------------------------
                    Distance matrix (angstroms):
                    1          2          3
     1  O    0.000000
     2  H    0.968574   0.000000
     3  H    0.968574   1.522372   0.000000
 Stoichiometry    H2O
 Framework group  C2V[C2(O),SGV(H2)]
 Deg. of freedom     2
 Full point group                 C2V     NOp   4
 Largest Abelian subgroup         C2V     NOp   4
 Largest concise Abelian subgroup C2      NOp   2
                         Standard orientation:                         
 ---------------------------------------------------------------------
 Center     Atomic      Atomic             Coordinates (Angstroms)
 Number     Number       Type             X           Y           Z
 ---------------------------------------------------------------------
      1          8           0        0.000000    0.000000    0.119788
      2          1           0        0.000000    0.761186   -0.479154
      3          1           0       -0.000000   -0.761186   -0.479154
 ---------------------------------------------------------------------
 Rotational constants (GHZ):    787.0057832    432.7334560    279.2102783
 Leave Link  202 at Tue Sep 10 12:26:09 2019, MaxMem=  2684354560 cpu:         0.1
 (Enter /soft/gaussian/09-e.01/g09/l301.exe)
 Standard basis: 6-31G(d) (6D, 7F)
 Ernie: Thresh=  0.10000D-02 Tol=  0.10000D-05 Strict=F.
 There are    10 symmetry adapted cartesian basis functions of A1  symmetry.
 There are     1 symmetry adapted cartesian basis functions of A2  symmetry.
 There are     3 symmetry adapted cartesian basis functions of B1  symmetry.
 There are     5 symmetry adapted cartesian basis functions of B2  symmetry.
 There are    10 symmetry adapted basis functions of A1  symmetry.
 There are     1 symmetry adapted basis functions of A2  symmetry.
 There are     3 symmetry adapted basis functions of B1  symmetry.
 There are     5 symmetry adapted basis functions of B2  symmetry.
    19 basis functions,    36 primitive gaussians,    19 cartesian basis functions
     5 alpha electrons        5 beta electrons
       nuclear repulsion energy         9.0891474159 Hartrees.
 IExCor=  402 DFT=T Ex+Corr=B3LYP ExCW=0 ScaHFX=  0.200000
 ScaDFX=  0.800000  0.720000  1.000000  0.810000 ScalE2=  1.000000  1.000000
 IRadAn=      5 IRanWt=     -1 IRanGd=            0 ICorTp=0 IEmpDi=  4
 NAtoms=    3 NActive=    3 NUniq=    2 SFac= 2.25D+00 NAtFMM=   60 NAOKFM=F Big=F
 Integral buffers will be    131072 words long.
 Raffenetti 2 integral format.
 Two-electron integral symmetry is turned on.
 Leave Link  301 at Tue Sep 10 12:26:10 2019, MaxMem=  2684354560 cpu:         0.5
 (Enter /soft/gaussian/09-e.01/g09/l302.exe)
 NPDir=0 NMtPBC=     1 NCelOv=     1 NCel=       1 NClECP=     1 NCelD=      1
         NCelK=      1 NCelE2=     1 NClLst=     1 CellRange=     0.0.
 One-electron integrals computed using PRISM.
 One-electron integral symmetry used in STVInt
 NBasis=    19 RedAO= T EigKep=  4.23D-02  NBF=    10     1     3     5
 NBsUse=    19 1.00D-06 EigRej= -1.00D+00 NBFU=    10     1     3     5
 Precomputing XC quadrature grid using
 IXCGrd= 4 IRadAn=           5 IRanWt=          -1 IRanGd=           0 AccXCQ= 0.00D+00.
 Generated NRdTot=       0 NPtTot=           0 NUsed=           0 NTot=          32
 NSgBfM=    19    19    19    19    19 MxSgAt=     3 MxSgA2=     3.
 Leave Link  302 at Tue Sep 10 12:26:10 2019, MaxMem=  2684354560 cpu:         1.5
 (Enter /soft/gaussian/09-e.01/g09/l303.exe)
 DipDrv:  MaxL=1.
 Leave Link  303 at Tue Sep 10 12:26:10 2019, MaxMem=  2684354560 cpu:         0.2
 (Enter /soft/gaussian/09-e.01/g09/l401.exe)
 ExpMin= 1.61D-01 ExpMax= 5.48D+03 ExpMxC= 8.25D+02 IAcc=3 IRadAn=         5 AccDes= 0.00D+00
 Harris functional with IExCor=  402 and IRadAn=       5 diagonalized for initial guess.
 HarFok:  IExCor=  402 AccDes= 0.00D+00 IRadAn=         5 IDoV= 1 UseB2=F ITyADJ=14
 ICtDFT=  3500011 ScaDFX=  1.000000  1.000000  1.000000  1.000000
 FoFCou: FMM=F IPFlag=           0 FMFlag=      100000 FMFlg1=           0
         NFxFlg=           0 DoJE=T BraDBF=F KetDBF=T FulRan=T
         wScrn=  0.000000 ICntrl=     500 IOpCl=  0 I1Cent=   200000004 NGrid=           0
         NMat0=    1 NMatS0=      1 NMatT0=    0 NMatD0=    1 NMtDS0=    0 NMtDT0=    0
 Petite list used in FoFCou.
 Harris En= -76.4471522920056    
 JPrj=0 DoOrth=F DoCkMO=F.
 Initial guess orbital symmetries:
       Occupied  (A1) (A1) (B2) (A1) (B1)
       Virtual   (A1) (B2) (B2) (A1) (B1) (A1) (B2) (A1) (A1) (A2)
                 (B1) (A1) (B2) (A1)
 The electronic state of the initial guess is 1-A1.
 Leave Link  401 at Tue Sep 10 12:26:10 2019, MaxMem=  2684354560 cpu:         1.6
 (Enter /soft/gaussian/09-e.01/g09/l502.exe)
 Closed shell SCF:
 Using DIIS extrapolation, IDIIS=  1040.
 Integral symmetry usage will be decided dynamically.
 Keep R1 ints in memory in symmetry-blocked form, NReq=888505.
 IVT=        7689 IEndB=        7689 NGot=  2684354560 MDV=  2684340502
 LenX=  2684340502 LenY=  2684339620
 Requested convergence on RMS density matrix=1.00D-08 within  64 cycles.
 Requested convergence on MAX density matrix=1.00D-06.
 Requested convergence on             energy=1.00D-06.
 No special actions if energy rises.
 FoFCou: FMM=F IPFlag=           0 FMFlag=           0 FMFlg1=           0
         NFxFlg=           0 DoJE=F BraDBF=F KetDBF=F FulRan=T
         wScrn=  0.000000 ICntrl=     600 IOpCl=  0 I1Cent=           0 NGrid=           0
         NMat0=    1 NMatS0=    190 NMatT0=    0 NMatD0=    1 NMtDS0=    0 NMtDT0=    0
 Petite list used in FoFCou.
 Integral accuracy reduced to 1.0D-05 until final iterations.

 Cycle   1  Pass 0  IDiag  1:
 E= -76.3309108528826    
 DIIS: error= 8.00D-02 at cycle   1 NSaved=   1.
 NSaved= 1 IEnMin= 1 EnMin= -76.3309108528826     IErMin= 1 ErrMin= 8.00D-02
 ErrMax= 8.00D-02  0.00D+00 EMaxC= 1.00D-01 BMatC= 1.04D-01 BMatP= 1.04D-01
 IDIUse=3 WtCom= 2.00D-01 WtEn= 8.00D-01
 Coeff-Com:  0.100D+01
 Coeff-En:   0.100D+01
 Coeff:      0.100D+01
 Gap=     0.210 Goal=   None    Shift=    0.000
 GapD=    0.210 DampG=1.000 DampE=0.500 DampFc=0.5000 IDamp=-1.
 Damping current iteration by 5.00D-01
 RMSDP=3.01D-02 MaxDP=2.36D-01              OVMax= 2.04D-01

 Cycle   2  Pass 0  IDiag  1:
 E= -76.3572856880369     Delta-E=       -0.026374835154 Rises=F Damp=T
 DIIS: error= 1.96D-02 at cycle   2 NSaved=   2.
 NSaved= 2 IEnMin= 2 EnMin= -76.3572856880369     IErMin= 2 ErrMin= 1.96D-02
 ErrMax= 1.96D-02  0.00D+00 EMaxC= 1.00D-01 BMatC= 6.65D-03 BMatP= 1.04D-01
 IDIUse=3 WtCom= 8.04D-01 WtEn= 1.96D-01
 Coeff-Com:  0.187D+00 0.813D+00
 Coeff-En:   0.304D+00 0.696D+00
 Coeff:      0.210D+00 0.790D+00
 Gap=     0.340 Goal=   None    Shift=    0.000
 RMSDP=3.71D-03 MaxDP=4.01D-02 DE=-2.64D-02 OVMax= 1.14D-01

 Cycle   3  Pass 0  IDiag  1:
 E= -76.4087976250600     Delta-E=       -0.051511937023 Rises=F Damp=F
 DIIS: error= 3.45D-03 at cycle   3 NSaved=   3.
 NSaved= 3 IEnMin= 3 EnMin= -76.4087976250600     IErMin= 3 ErrMin= 3.45D-03
 ErrMax= 3.45D-03  0.00D+00 EMaxC= 1.00D-01 BMatC= 2.26D-04 BMatP= 6.65D-03
 IDIUse=3 WtCom= 9.65D-01 WtEn= 3.45D-02
 Coeff-Com:  0.401D-01-0.147D-01 0.975D+00
 Coeff-En:   0.000D+00 0.000D+00 0.100D+01
 Coeff:      0.387D-01-0.142D-01 0.975D+00
 Gap=     0.354 Goal=   None    Shift=    0.000
 RMSDP=5.17D-04 MaxDP=4.48D-03 DE=-5.15D-02 OVMax= 3.52D-03

 Cycle   4  Pass 0  IDiag  1:
 E= -76.4089516816518     Delta-E=       -0.000154056592 Rises=F Damp=F
 DIIS: error= 3.70D-04 at cycle   4 NSaved=   4.
 NSaved= 4 IEnMin= 4 EnMin= -76.4089516816518     IErMin= 4 ErrMin= 3.70D-04
 ErrMax= 3.70D-04  0.00D+00 EMaxC= 1.00D-01 BMatC= 2.08D-06 BMatP= 2.26D-04
 IDIUse=3 WtCom= 9.96D-01 WtEn= 3.70D-03
 Coeff-Com:  0.644D-02-0.181D-01 0.217D+00 0.795D+00
 Coeff-En:   0.000D+00 0.000D+00 0.000D+00 0.100D+01
 Coeff:      0.642D-02-0.180D-01 0.216D+00 0.796D+00
 Gap=     0.354 Goal=   None    Shift=    0.000
 RMSDP=3.94D-05 MaxDP=1.87D-04 DE=-1.54D-04 OVMax= 2.94D-04

 Cycle   5  Pass 0  IDiag  1:
 E= -76.4089531796451     Delta-E=       -0.000001497993 Rises=F Damp=F
 DIIS: error= 5.58D-05 at cycle   5 NSaved=   5.
 NSaved= 5 IEnMin= 5 EnMin= -76.4089531796451     IErMin= 5 ErrMin= 5.58D-05
 ErrMax= 5.58D-05  0.00D+00 EMaxC= 1.00D-01 BMatC= 4.46D-08 BMatP= 2.08D-06
 IDIUse=1 WtCom= 1.00D+00 WtEn= 0.00D+00
 Coeff-Com:  0.543D-03-0.354D-03-0.555D-03-0.501D-02 0.101D+01
 Coeff:      0.543D-03-0.354D-03-0.555D-03-0.501D-02 0.101D+01
 Gap=     0.354 Goal=   None    Shift=    0.000
 RMSDP=8.49D-06 MaxDP=7.75D-05 DE=-1.50D-06 OVMax= 4.73D-05

 Initial convergence to 1.0D-05 achieved.  Increase integral accuracy.
 Cycle   6  Pass 1  IDiag  1:
 E= -76.4089538594687     Delta-E=       -0.000000679824 Rises=F Damp=F
 DIIS: error= 6.24D-07 at cycle   1 NSaved=   1.
 NSaved= 1 IEnMin= 1 EnMin= -76.4089538594687     IErMin= 1 ErrMin= 6.24D-07
 ErrMax= 6.24D-07  0.00D+00 EMaxC= 1.00D-01 BMatC= 4.73D-12 BMatP= 4.73D-12
 IDIUse=1 WtCom= 1.00D+00 WtEn= 0.00D+00
 Coeff-Com:  0.100D+01
 Coeff:      0.100D+01
 Gap=     0.354 Goal=   None    Shift=    0.000
 RMSDP=8.49D-06 MaxDP=7.75D-05 DE=-6.80D-07 OVMax= 1.11D-06

 Cycle   7  Pass 1  IDiag  1:
 E= -76.4089538594736     Delta-E=       -0.000000000005 Rises=F Damp=F
 DIIS: error= 3.54D-07 at cycle   2 NSaved=   2.
 NSaved= 2 IEnMin= 2 EnMin= -76.4089538594736     IErMin= 2 ErrMin= 3.54D-07
 ErrMax= 3.54D-07  0.00D+00 EMaxC= 1.00D-01 BMatC= 1.87D-12 BMatP= 4.73D-12
 IDIUse=1 WtCom= 1.00D+00 WtEn= 0.00D+00
 Coeff-Com:  0.352D+00 0.648D+00
 Coeff:      0.352D+00 0.648D+00
 Gap=     0.354 Goal=   None    Shift=    0.000
 RMSDP=7.52D-08 MaxDP=5.29D-07 DE=-4.85D-12 OVMax= 5.47D-07

 Cycle   8  Pass 1  IDiag  1:
 E= -76.4089538594744     Delta-E=       -0.000000000001 Rises=F Damp=F
 DIIS: error= 2.05D-07 at cycle   3 NSaved=   3.
 NSaved= 3 IEnMin= 3 EnMin= -76.4089538594744     IErMin= 3 ErrMin= 2.05D-07
 ErrMax= 2.05D-07  0.00D+00 EMaxC= 1.00D-01 BMatC= 6.22D-13 BMatP= 1.87D-12
 IDIUse=1 WtCom= 1.00D+00 WtEn= 0.00D+00
 Coeff-Com: -0.428D-01 0.355D+00 0.687D+00
 Coeff:     -0.428D-01 0.355D+00 0.687D+00
 Gap=     0.354 Goal=   None    Shift=    0.000
 RMSDP=2.58D-08 MaxDP=2.00D-07 DE=-8.38D-13 OVMax= 1.70D-07

 Cycle   9  Pass 1  IDiag  1:
 E= -76.4089538594748     Delta-E=       -0.000000000000 Rises=F Damp=F
 DIIS: error= 5.42D-09 at cycle   4 NSaved=   4.
 NSaved= 4 IEnMin= 4 EnMin= -76.4089538594748     IErMin= 4 ErrMin= 5.42D-09
 ErrMax= 5.42D-09  0.00D+00 EMaxC= 1.00D-01 BMatC= 6.43D-16 BMatP= 6.22D-13
 IDIUse=1 WtCom= 1.00D+00 WtEn= 0.00D+00
 Coeff-Com: -0.939D-02 0.509D-01 0.119D+00 0.840D+00
 Coeff:     -0.939D-02 0.509D-01 0.119D+00 0.840D+00
 Gap=     0.354 Goal=   None    Shift=    0.000
 RMSDP=7.92D-10 MaxDP=4.45D-09 DE=-4.12D-13 OVMax= 6.08D-09

 SCF Done:  E(RB3LYP) =  -76.4089538595     A.U. after    9 cycles
            NFock=  9  Conv=0.79D-09     -V/T= 2.0078
 KE= 7.582015289631D+01 PE=-1.987586677736D+02 EE= 3.744041360187D+01
 Leave Link  502 at Tue Sep 10 12:26:10 2019, MaxMem=  2684354560 cpu:         1.8
 (Enter /soft/gaussian/09-e.01/g09/l508.exe)
 QCSCF skips out because SCF is already converged.
 Leave Link  508 at Tue Sep 10 12:26:10 2019, MaxMem=  2684354560 cpu:         0.0
 (Enter /soft/gaussian/09-e.01/g09/l801.exe)
 DoSCS=F DFT=T ScalE2(SS,OS)=  1.000000  1.000000
 Range of M.O.s used for correlation:     1    19
 NBasis=    19 NAE=     5 NBE=     5 NFC=     0 NFV=     0
 NROrb=     19 NOA=     5 NOB=     5 NVA=    14 NVB=    14
 Leave Link  801 at Tue Sep 10 12:26:10 2019, MaxMem=  2684354560 cpu:         0.2
 (Enter /soft/gaussian/09-e.01/g09/l1101.exe)
 Using compressed storage, NAtomX=     3.
 Will process      4 centers per pass.
 Leave Link 1101 at Tue Sep 10 12:26:10 2019, MaxMem=  2684354560 cpu:         1.5
 (Enter /soft/gaussian/09-e.01/g09/l1102.exe)
 Symmetrizing basis deriv contribution to polar:
 IMax=3 JMax=2 DiffMx= 0.00D+00
 Leave Link 1102 at Tue Sep 10 12:26:10 2019, MaxMem=  2684354560 cpu:         0.2
 (Enter /soft/gaussian/09-e.01/g09/l1110.exe)
 Forming Gx(P) for the SCF density, NAtomX=     3.
 Integral derivatives from FoFJK, PRISM(SPDF).
 Do as many integral derivatives as possible in FoFJK.
 G2DrvN: MDV=    2684354432.
 G2DrvN: will do     4 centers at a time, making    1 passes.
 Calling FoFCou, ICntrl=  3107 FMM=F I1Cent=   0 AccDes= 0.00D+00.
 FoFJK:  IHMeth= 1 ICntrl=    3107 DoSepK=F KAlg= 0 I1Cent=   0 FoldK=F
 IRaf=         0 NMat=   1 IRICut=       1 DoRegI=T DoRafI=F ISym2E= 1.
 FoFCou: FMM=F IPFlag=           0 FMFlag=      100000 FMFlg1=           0
         NFxFlg=           0 DoJE=F BraDBF=F KetDBF=F FulRan=T
         wScrn=  0.000000 ICntrl=    3107 IOpCl=  0 I1Cent=           0 NGrid=           0
         NMat0=    1 NMatS0=      1 NMatT0=    0 NMatD0=    1 NMtDS0=    0 NMtDT0=    0
 Petite list used in FoFCou.
 End of G2Drv F.D. properties file   721 does not exist.
 End of G2Drv F.D. properties file   722 does not exist.
 End of G2Drv F.D. properties file   788 does not exist.
 Leave Link 1110 at Tue Sep 10 12:26:11 2019, MaxMem=  2684354560 cpu:         1.8
 (Enter /soft/gaussian/09-e.01/g09/l1002.exe)
 Minotr:  Closed shell wavefunction.
          IDoAtm=111
          Direct CPHF calculation.
          Differentiating once with respect to electric field.
                with respect to dipole field.
          Differentiating once with respect to nuclear coordinates.
          Using symmetry in CPHF.
          Requested convergence is 1.0D-08 RMS, and 1.0D-07 maximum.
          Secondary convergence is 1.0D-12 RMS, and 1.0D-12 maximum.
          NewPWx=T KeepS1=F KeepF1=F KeepIn=T MapXYZ=F SortEE=F KeepMc=T.
          MDV=    2684354507 using IRadAn=       1.
 Generate precomputed XC quadrature information.
 Keep R1 ints in memory in symmetry-blocked form, NReq=878800.
 FoFCou: FMM=F IPFlag=           0 FMFlag=           0 FMFlg1=           0
         NFxFlg=           0 DoJE=F BraDBF=F KetDBF=F FulRan=T
         wScrn=  0.000000 ICntrl=     600 IOpCl=  0 I1Cent=           0 NGrid=           0
         NMat0=    1 NMatS0=    190 NMatT0=    0 NMatD0=    1 NMtDS0=    0 NMtDT0=    0
 Petite list used in FoFCou.
          Solving linear equations simultaneously, MaxMat=       0.
          There are     9 degrees of freedom in the 1st order CPHF.  IDoFFX=4 NUNeed=     9.
      9 vectors produced by pass  0 Test12= 7.78D-16 1.11D-08 XBig12= 3.32D+00 1.28D+00.
 AX will form     9 AO Fock derivatives at one time.
      9 vectors produced by pass  1 Test12= 7.78D-16 1.11D-08 XBig12= 3.39D-01 2.91D-01.
      9 vectors produced by pass  2 Test12= 7.78D-16 1.11D-08 XBig12= 2.95D-03 2.75D-02.
      9 vectors produced by pass  3 Test12= 7.78D-16 1.11D-08 XBig12= 2.74D-06 8.52D-04.
      7 vectors produced by pass  4 Test12= 7.78D-16 1.11D-08 XBig12= 1.06D-09 1.65D-05.
      2 vectors produced by pass  5 Test12= 7.78D-16 1.11D-08 XBig12= 2.81D-13 1.98D-07.
 InvSVY:  IOpt=1 It=  1 EMax= 1.35D-16
 Solved reduced A of dimension    45 with     9 vectors.
 FullF1:  Do perturbations    1 to     9.
 Isotropic polarizability for W=    0.000000        5.21 Bohr**3.
 End of Minotr F.D. properties file   721 does not exist.
 End of Minotr F.D. properties file   722 does not exist.
 End of Minotr F.D. properties file   788 does not exist.
 Leave Link 1002 at Tue Sep 10 12:26:11 2019, MaxMem=  2684354560 cpu:         2.0
 (Enter /soft/gaussian/09-e.01/g09/l601.exe)
 Copying SCF densities to generalized density rwf, IOpCl= 0 IROHF=0.

 **********************************************************************

            Population analysis using the SCF density.

 **********************************************************************

 Orbital symmetries:
       Occupied  (A1) (A1) (B2) (A1) (B1)
       Virtual   (A1) (B2) (B2) (A1) (B1) (A1) (B2) (A1) (A1) (A2)
                 (B1) (A1) (B2) (A1)
 The electronic state is 1-A1.
 Alpha  occ. eigenvalues --  -19.13817  -0.99799  -0.51711  -0.37232  -0.29122
 Alpha virt. eigenvalues --    0.06263   0.14816   0.77235   0.86120   0.89077
 Alpha virt. eigenvalues --    0.89515   1.06578   1.19364   1.72892   1.74638
 Alpha virt. eigenvalues --    1.77973   2.28074   2.57728   3.55189
          Condensed to atoms (all electrons):
               1          2          3
     1  O    8.289064   0.242604   0.242604
     2  H    0.242604   0.393707  -0.023448
     3  H    0.242604  -0.023448   0.393707
 Mulliken charges:
               1
     1  O   -0.774273
     2  H    0.387137
     3  H    0.387137
 Sum of Mulliken charges =   0.00000
 Mulliken charges with hydrogens summed into heavy atoms:
               1
     1  O    0.000000
 APT charges:
               1
     1  O   -0.491145
     2  H    0.245572
     3  H    0.245572
 Sum of APT charges =  -0.00000
 APT charges with hydrogens summed into heavy atoms:
               1
     1  O   -0.000000
 Electronic spatial extent (au):  <R**2>=             19.1846
 Charge=              0.0000 electrons
 Dipole moment (field-independent basis, Debye):
    X=             -0.0000    Y=             -0.0000    Z=             -2.0960  Tot=              2.0960
 Quadrupole moment (field-independent basis, Debye-Ang):
   XX=             -7.2036   YY=             -4.2889   ZZ=             -5.9885
   XY=              0.0000   XZ=              0.0000   YZ=             -0.0000
 Traceless Quadrupole moment (field-independent basis, Debye-Ang):
   XX=             -1.3766   YY=              1.5381   ZZ=             -0.1615
   XY=              0.0000   XZ=              0.0000   YZ=             -0.0000
 Octapole moment (field-independent basis, Debye-Ang**2):
  XXX=              0.0000  YYY=              0.0000  ZZZ=             -1.2181  XYY=             -0.0000
  XXY=             -0.0000  XXZ=             -0.3238  XZZ=             -0.0000  YZZ=             -0.0000
  YYZ=             -1.2123  XYZ=             -0.0000
 Hexadecapole moment (field-independent basis, Debye-Ang**3):
 XXXX=             -5.2139 YYYY=             -6.0611 ZZZZ=             -6.2945 XXXY=             -0.0000
 XXXZ=             -0.0000 YYYX=             -0.0000 YYYZ=             -0.0000 ZZZX=             -0.0000
 ZZZY=             -0.0000 XXYY=             -2.1168 XXZZ=             -1.9680 YYZZ=             -1.7413
 XXYZ=              0.0000 YYXZ=              0.0000 ZZXY=              0.0000
 N-N= 9.089147415938D+00 E-N=-1.987586676787D+02  KE= 7.582015289631D+01
 Symmetry A1   KE= 6.765926805755D+01
 Symmetry A2   KE= 4.944530565279D-35
 Symmetry B1   KE= 4.599954038743D+00
 Symmetry B2   KE= 3.560930800017D+00
  Exact polarizability:   2.830   0.000   7.390   0.000   0.000   5.425
 Approx polarizability:   3.082   0.000   8.965   0.000   0.000   6.757
 No NMR shielding tensors so no spin-rotation constants.
 Leave Link  601 at Tue Sep 10 12:26:11 2019, MaxMem=  2684354560 cpu:         1.5
 (Enter /soft/gaussian/09-e.01/g09/l701.exe)
 Compute integral second derivatives.
 ... and contract with generalized density number  0.
 Entering OneElI...
 Calculate overlap and kinetic energy integrals
    NBasis =  19  MinDer = 2  MaxDer = 2
 Requested accuracy = 0.1000D-12
 PrsmSu:  NPrtUS=  10 ThrOK=T IAlg=1 NPAlg=1 LenDen=           0.
 Prism:   IPart=     0 DynPar=F LinDyn=F Incr=           1.
 PRISM was handed   268432450 working-precision words and    36 shell-pairs
 PRISM was handed   268432450 working-precision words and    36 shell-pairs
 PRISM was handed   268432450 working-precision words and    36 shell-pairs
 PRISM was handed   268432450 working-precision words and    36 shell-pairs
 PRISM was handed   268432450 working-precision words and    36 shell-pairs
 PRISM was handed   268432450 working-precision words and    36 shell-pairs
 PRISM was handed   268432450 working-precision words and    36 shell-pairs
 PRISM was handed   268432450 working-precision words and    36 shell-pairs
 PRISM was handed   268432450 working-precision words and    36 shell-pairs
 PRISM was handed   268432450 working-precision words and    36 shell-pairs
 IPart=  2 NShTot=           3 NBatch=           3 AvBLen=         1.0
 IPart=  3 NShTot=           2 NBatch=           2 AvBLen=         1.0
 IPart=  7 NShTot=           0 NBatch=           0 AvBLen=         0.0
 IPart=  9 NShTot=           0 NBatch=           0 AvBLen=         0.0
 IPart=  1 NShTot=          10 NBatch=          10 AvBLen=         1.0
 IPart=  5 NShTot=           0 NBatch=           0 AvBLen=         0.0
 IPart=  4 NShTot=           0 NBatch=           0 AvBLen=         0.0
 IPart=  6 NShTot=           0 NBatch=           0 AvBLen=         0.0
 IPart=  0 NShTot=          21 NBatch=          21 AvBLen=         1.0
 IPart=  8 NShTot=           0 NBatch=           0 AvBLen=         0.0
 PrSmSu:  NxtVal=             11.
 Entering OneElI...
 Calculate potential energy integrals
    NBasis =  19  MinDer = 2  MaxDer = 2
 Requested accuracy = 0.1000D-12
 PrsmSu:  NPrtUS=  10 ThrOK=T IAlg=1 NPAlg=1 LenDen=           0.
 Prism:   IPart=     0 DynPar=F LinDyn=F Incr=           1.
 PRISM was handed   268432526 working-precision words and    36 shell-pairs
 PRISM was handed   268432526 working-precision words and    36 shell-pairs
 PRISM was handed   268432526 working-precision words and    36 shell-pairs
 PRISM was handed   268432526 working-precision words and    36 shell-pairs
 PRISM was handed   268432526 working-precision words and    36 shell-pairs
 PRISM was handed   268432526 working-precision words and    36 shell-pairs
 PRISM was handed   268432526 working-precision words and    36 shell-pairs
 PRISM was handed   268432526 working-precision words and    36 shell-pairs
 PRISM was handed   268432526 working-precision words and    36 shell-pairs
 PRISM was handed   268432526 working-precision words and    36 shell-pairs
 IPart=  2 NShTot=           9 NBatch=           3 AvBLen=         3.0
 IPart=  0 NShTot=          63 NBatch=          21 AvBLen=         3.0
 IPart=  4 NShTot=           0 NBatch=           0 AvBLen=         0.0
 IPart=  9 NShTot=           0 NBatch=           0 AvBLen=         0.0
 IPart=  7 NShTot=           0 NBatch=           0 AvBLen=         0.0
 IPart=  1 NShTot=          30 NBatch=          10 AvBLen=         3.0
 IPart=  3 NShTot=           6 NBatch=           2 AvBLen=         3.0
 IPart=  5 NShTot=           0 NBatch=           0 AvBLen=         0.0
 IPart=  6 NShTot=           0 NBatch=           0 AvBLen=         0.0
 IPart=  8 NShTot=           0 NBatch=           0 AvBLen=         0.0
 PrSmSu:  NxtVal=             11.
 Polarizability after L701:
                1             2             3 
      1  0.283014D+01
      2  0.000000D+00  0.738983D+01
      3  0.000000D+00  0.000000D+00  0.542458D+01
 Dipole Derivatives after L701:
                 1             2             3             4             5 
      1  -0.728585D+00  0.000000D+00  0.000000D+00  0.364293D+00  0.000000D+00
      2   0.000000D+00 -0.409791D+00  0.000000D+00  0.000000D+00  0.204896D+00
      3   0.000000D+00  0.000000D+00 -0.335057D+00  0.000000D+00  0.917769D-01
                 6             7             8             9 
      1   0.000000D+00  0.364293D+00  0.000000D+00  0.000000D+00
      2   0.125423D+00  0.000000D+00  0.204896D+00 -0.125423D+00
      3   0.167529D+00  0.000000D+00 -0.917769D-01  0.167529D+00
 Hessian after L701:
                1             2             3             4             5 
      1  0.457847D+01
      2  0.000000D+00  0.163985D+01
      3  0.000000D+00  0.000000D+00  0.321719D+01
      4 -0.228923D+01  0.000000D+00  0.000000D+00  0.225315D+01
      5  0.000000D+00 -0.819926D+00 -0.110987D+01  0.000000D+00  0.903105D+00
      6  0.000000D+00 -0.104932D+01 -0.160860D+01  0.000000D+00  0.107960D+01
      7 -0.228923D+01  0.000000D+00  0.000000D+00  0.360858D-01  0.000000D+00
      8  0.000000D+00 -0.819926D+00  0.110987D+01  0.000000D+00 -0.831791D-01
      9  0.000000D+00  0.104932D+01 -0.160860D+01  0.000000D+00  0.302772D-01
                6             7             8             9 
      6  0.155036D+01
      7  0.000000D+00  0.225315D+01
      8 -0.302772D-01  0.000000D+00  0.903105D+00
      9  0.582385D-01  0.000000D+00 -0.107960D+01  0.155036D+01
 Leave Link  701 at Tue Sep 10 12:26:11 2019, MaxMem=  2684354560 cpu:         1.9
 (Enter /soft/gaussian/09-e.01/g09/l702.exe)
 L702 exits ... SP integral derivatives will be done elsewhere.
 Leave Link  702 at Tue Sep 10 12:26:11 2019, MaxMem=  2684354560 cpu:         0.2
 (Enter /soft/gaussian/09-e.01/g09/l703.exe)
 Compute integral second derivatives, UseDBF=F ICtDFT=           0.
 Integral derivatives from FoFJK, PRISM(SPDF).
 ICntrl=    100127.
 Calling FoFJK, ICntrl=    100127 FMM=F ISym2X=1 I1Cent= 0 IOpClX= 0 NMat=1 NMatS=1 NMatT=0.
 FoFJK:  IHMeth= 1 ICntrl=  100127 DoSepK=F KAlg= 0 I1Cent=   0 FoldK=F
 IRaf=         0 NMat=   1 IRICut=       1 DoRegI=T DoRafI=F ISym2E= 1.
 FoFCou: FMM=F IPFlag=           0 FMFlag=      100000 FMFlg1=         800
         NFxFlg=           0 DoJE=F BraDBF=F KetDBF=F FulRan=T
         wScrn=  0.000000 ICntrl=  100127 IOpCl=  0 I1Cent=           0 NGrid=           0
         NMat0=    1 NMatS0=      1 NMatT0=    0 NMatD0=    1 NMtDS0=    0 NMtDT0=    0
 Petite list used in FoFCou.
 FoFCou:  KetSym=F NOpSet=  4 NOpAb=4 NOp=  4.
 FoFCou:  CnvScl= 1.00D+00 Thresh= 1.00D-10 IAcrcy=      10.
 PrismS was handed  2684347024 working-precision words and    36 shell-pairs
 FoFCou: LinMIO=F DoNuc=F BraDBF=F KetDBF=F HaveP=T PDBF=F HaveZ=T HaveW=F
         NIJTC =       6 NIJTAt=       0 NIJTCD=       0 NIJTT =       6
         IJTBeg=       1 IJTEnd=       6 KLTBeg=       1 KLTEnd=       6
         IPTBeg=       1 IPTEnd=       6 IPTBCv=       1 IPTECv=       6
         IZTBeg=       1 IZTEnd=       6 IZTBCv=       1 IZTECv=       6
         IWTBeg=       7 IWTEnd=       6 IWTBCv=       7 IWTECv=       6
         INTBeg=       1 INTEnd=       0 IFTBCv=       1 IFTECv=       6
 NCel replicated for PrismC:     1
 CoulSu:  IncDef=  1024 NBBP=            666 NTPThr=   100 NPartT=   10 Incr=           1 LDynOK=F.
 CoulSu:  NPrtUS=  10 ThrOK=T IAlg=1 NPAlg=1 LenDen=           0 LWGrdD=           0 DoCopy=F.
 Enter PrismC: JobTyp=22 DoJE=F Cont=F.
 PrismC:  IPart=     0 DynPar=F LinDyn=F Incr=           1 UseFst=F UseS4=T IGathr=2.
 PrismC was handed   268432545 working-precision words and    36 shell-pairs
 Enter PrismC: JobTyp=22 DoJE=F Cont=F.
 PrismC was handed   268432545 working-precision words and    36 shell-pairs
 Enter PrismC: JobTyp=22 DoJE=F Cont=F.
 PrismC was handed   268432545 working-precision words and    36 shell-pairs
 Enter PrismC: JobTyp=22 DoJE=F Cont=F.
 PrismC was handed   268432545 working-precision words and    36 shell-pairs
 Enter PrismC: JobTyp=22 DoJE=F Cont=F.
 Enter PrismC: JobTyp=22 DoJE=F Cont=F.
 Enter PrismC: JobTyp=22 DoJE=F Cont=F.
 PrismC was handed   268432545 working-precision words and    36 shell-pairs
 PrismC was handed   268432545 working-precision words and    36 shell-pairs
 PrismC was handed   268432545 working-precision words and    36 shell-pairs
 Enter PrismC: JobTyp=22 DoJE=F Cont=F.
 PrismC was handed   268432545 working-precision words and    36 shell-pairs
 Enter PrismC: JobTyp=22 DoJE=F Cont=F.
 Enter PrismC: JobTyp=22 DoJE=F Cont=F.
 PrismC was handed   268432545 working-precision words and    36 shell-pairs
 PrismC was handed   268432545 working-precision words and    36 shell-pairs
 IPart=  7 NShTot=           3 NShNF=           3 NShFF=           0 NBatch=           3 AvBLen=         1.0
 IPart=  9 NShTot=           0 NShNF=           0 NShFF=           0 NBatch=           0 AvBLen=         0.0
 IPart=  5 NShTot=           6 NShNF=           6 NShFF=           0 NBatch=           6 AvBLen=         1.0
 IPart=  3 NShTot=          38 NShNF=          38 NShFF=           0 NBatch=          38 AvBLen=         1.0
 IPart=  1 NShTot=         133 NShNF=         133 NShFF=           0 NBatch=         133 AvBLen=         1.0
 IPart=  0 NShTot=         142 NShNF=         142 NShFF=           0 NBatch=         142 AvBLen=         1.0
 IPart=  2 NShTot=          47 NShNF=          47 NShFF=           0 NBatch=          47 AvBLen=         1.0
 IPart=  4 NShTot=           6 NShNF=           6 NShFF=           0 NBatch=           6 AvBLen=         1.0
 IPart=  6 NShTot=           3 NShNF=           3 NShFF=           0 NBatch=           3 AvBLen=         1.0
 IPart=  8 NShTot=           0 NShNF=           0 NShFF=           0 NBatch=           0 AvBLen=         0.0
 CoulSu:  NxtVal=             11.
 ReadGW:  IGet=0 IStart=           1 Next=           1 LGW=           0.
 Remaining memory in FofDFT     2560.00 Mw
 CkSvGd:  ISavGI=        -1 IRadAn=       5 IRASav=       5 ISavGd=        -1.
 CalDSu:  NPrtUS=  10 ThrOK=T IAlg=1 NPAlg=2 DoDPD=T LenP=         190 LenD1P=             0.
 IPart=  0 IRanGd=          0 ScrnBf=T ScrnGd=T RCrit=4.00D+00 DoMicB=T.
 IPart=  3         1608 of         1658 points in       4 batches and       10 microbatches, Max-NSigAt=       3 Max-NSgAt2=       3
 IPart=  9         1508 of         1598 points in       5 batches and       16 microbatches, Max-NSigAt=       3 Max-NSgAt2=       3
 IPart=  1         2191 of         2258 points in       4 batches and        6 microbatches, Max-NSigAt=       3 Max-NSgAt2=       3
 IPart=  0         2121 of         2192 points in       4 batches and        8 microbatches, Max-NSigAt=       3 Max-NSgAt2=       3
 IPart=  6         1350 of         1436 points in       4 batches and       14 microbatches, Max-NSigAt=       3 Max-NSgAt2=       3
 IPart=  2         1660 of         1732 points in       4 batches and       11 microbatches, Max-NSigAt=       3 Max-NSgAt2=       3
 IPart=  7         2358 of         2358 points in       2 batches and        6 microbatches, Max-NSigAt=       3 Max-NSgAt2=       3
 IPart=  5         1616 of         1714 points in       4 batches and       24 microbatches, Max-NSigAt=       3 Max-NSgAt2=       3
 IPart=  4         1359 of         1436 points in       4 batches and       18 microbatches, Max-NSigAt=       3 Max-NSgAt2=       3
 IPart=  8         1372 of         1436 points in       4 batches and       15 microbatches, Max-NSigAt=       3 Max-NSgAt2=       3
 Polarizability after L703:
                1             2             3 
      1  0.283014D+01
      2  0.000000D+00  0.738983D+01
      3  0.000000D+00  0.000000D+00  0.542458D+01
 Dipole Derivatives after L703:
                 1             2             3             4             5 
      1  -0.728585D+00  0.000000D+00  0.000000D+00  0.364293D+00  0.000000D+00
      2   0.000000D+00 -0.409791D+00  0.000000D+00  0.000000D+00  0.204896D+00
      3   0.000000D+00  0.000000D+00 -0.335057D+00  0.000000D+00  0.917769D-01
                 6             7             8             9 
      1   0.000000D+00  0.364293D+00  0.000000D+00  0.000000D+00
      2   0.125423D+00  0.000000D+00  0.204896D+00 -0.125423D+00
      3   0.167529D+00  0.000000D+00 -0.917769D-01  0.167529D+00
 Hessian after L703:
                1             2             3             4             5 
      1 -0.391980D-04
      2  0.000000D+00  0.648264D+00
      3  0.000000D+00  0.000000D+00  0.453400D+00
      4  0.195990D-04  0.000000D+00  0.000000D+00 -0.693809D-04
      5  0.000000D+00 -0.324132D+00  0.187159D+00  0.000000D+00  0.355644D+00
      6  0.000000D+00  0.255060D+00 -0.226700D+00  0.000000D+00 -0.221110D+00
      7  0.195990D-04  0.000000D+00  0.000000D+00  0.497819D-04  0.000000D+00
      8  0.000000D+00 -0.324132D+00 -0.187159D+00  0.000000D+00 -0.315115D-01
      9  0.000000D+00 -0.255060D+00 -0.226700D+00  0.000000D+00  0.339509D-01
                6             7             8             9 
      6  0.213633D+00
      7  0.000000D+00 -0.693809D-04
      8 -0.339509D-01  0.000000D+00  0.355644D+00
      9  0.130669D-01  0.000000D+00  0.221110D+00  0.213633D+00
 Leave Link  703 at Tue Sep 10 12:26:12 2019, MaxMem=  2684354560 cpu:         3.0
 (Enter /soft/gaussian/09-e.01/g09/l716.exe)
 FrcOut:
 IF    =    37 IFX   =    46 IFXYZ =    55
 IFFX  =    64 IFFFX =   109 IFLen =     9
 IFFLen=    45 IFFFLn=     0 IEDerv=   109
 LEDerv=   485 IFroze=   721 ICStrt=  1523
 Dipole        =-6.58669894D-17 1.38777878D-17-8.24643337D-01
 DipoleDeriv   =-7.28585320D-01 1.26430238D-15 7.89639913D-16
                 4.25905361D-17-4.09791101D-01-1.96966250D-13
                 3.07868768D-17 4.58288138D-13-3.35057105D-01
                 3.64292660D-01-3.38904038D-13 2.73842734D-13
                -1.31258563D-17 2.04895551D-01 9.17768515D-02
                 1.47820981D-18 1.25422715D-01 1.67528553D-01
                 3.64292660D-01-3.46577064D-13-2.74337643D-13
                 3.11841904D-18 2.04895551D-01-9.17768515D-02
                 1.69634064D-18-1.25422715D-01 1.67528553D-01
 Polarizability= 2.83014036D+00 2.78298704D-16 7.38983330D+00
                 1.67102842D-16 2.19191332D-12 5.42457625D+00
 VibFq2-Diag1:  N=      9 IV=           4 MDV=  2684352549 NE2=   298261394
 Full mass-weighted force constant matrix:
 Low frequencies ---  -55.8962  -48.9382  -24.0548   -0.0004    0.0001    0.0016
 Low frequencies --- 1713.2493 3729.4441 3851.0598
 OrtVCM:  Ph=1 IPass= 1 DotMx1= 0.00D+00
 OrtVCM:  IS=    1 I=    1 IndO=    1 Dot= 1.00D+00 DotN= 1.00D+00 ElMax1= 9.42D-01 ElMax1N= 9.42D-01
 OrtVCM:  Ph=2 NNew=    0 IAdd=    2 IPass= 1 DotMx2= 0.00D+00
 OrtVCM:  IS=    1 I=    2 IndO=    2 Dot= 1.00D+00 DotN= 1.00D+00 ElMax1= 9.42D-01 ElMax1N= 9.42D-01
 OrtVCM:  Ph=2 NNew=    0 IAdd=    3 IPass= 1 DotMx2= 0.00D+00
 OrtVCM:  IS=    1 I=    3 IndO=    3 Dot= 1.00D+00 DotN= 1.00D+00 ElMax1= 9.42D-01 ElMax1N= 9.42D-01
 OrtVCM:  Ph=2 NNew=    0 IAdd=    4 IPass= 1 DotMx2= 3.08D-33
 OrtVCM:  IS=    1 I=    4 IndO=    4 Dot= 1.00D+00 DotN= 1.00D+00 ElMax1= 6.66D-01 ElMax1N= 6.66D-01
 OrtVCM:  Ph=2 NNew=    0 IAdd=    5 IPass= 1 DotMx2= 0.00D+00
 OrtVCM:  IS=    1 I=    5 IndO=    5 Dot= 1.00D+00 DotN= 1.00D+00 ElMax1= 7.07D-01 ElMax1N= 7.07D-01
 OrtVCM:  Ph=2 NNew=    0 IAdd=    6 IPass= 1 DotMx2= 6.63D-17
 OrtVCM:  IS=    1 I=    6 IndO=    6 Dot= 1.00D+00 DotN= 1.00D+00 ElMax1= 5.68D-01 ElMax1N= 5.68D-01
 OrtVCM:  Ph=1 IPass= 1 DotMx1= 9.42D-01
 OrtVCM:  Ph=1 IPass= 2 DotMx1= 8.33D-17
 OrtVCM:  IS=    1 I=    1 IndO=    0 Dot= 9.48D-34 DotN= 9.48D-34 ElMax1= 2.43D-17 ElMax1N= 2.43D-17
 OrtVCM:  IS=    1 I=    2 IndO=    7 Dot= 7.22D-02 DotN= 7.22D-02 ElMax1= 1.44D-01 ElMax1N= 1.44D-01
 OrtVCM:  Ph=2 NNew=    0 IAdd=    3 IPass= 1 DotMx2= 0.00D+00
 OrtVCM:  IS=    1 I=    3 IndO=    8 Dot= 1.12D-01 DotN= 1.12D-01 ElMax1= 2.23D-01 ElMax1N= 2.23D-01
 SchOr2:  IPass= 1 Test2A= 1.00D-01 IOff=     0 NDo=     3 NNew=     2
 OrtVCM:  Ph=1 IPass= 1 DotMx1= 7.07D-01
 OrtVCM:  Ph=1 IPass= 2 DotMx1= 1.96D-16
 OrtVCM:  IS=    1 I=    1 IndO=    0 Dot= 1.87D-33 DotN= 1.87D-33 ElMax1= 3.06D-17 ElMax1N= 3.06D-17
 SchOr2:  IPass= 1 Test2A= 1.00D-01 IOff=     3 NDo=     1 NNew=     0
 OrtVCM:  Ph=1 IPass= 1 DotMx1= 5.35D-01
 OrtVCM:  Ph=1 IPass= 2 DotMx1= 8.70D-17
 OrtVCM:  IS=    1 I=    1 IndO=    9 Dot= 5.00D-01 DotN= 5.00D-01 ElMax1= 5.00D-01 ElMax1N= 5.00D-01
 SchOr2:  IPass= 1 Test2A= 1.00D-01 IOff=     4 NDo=     1 NNew=     1
 VibFq2-Diag2:  N=      3 IV=           4 MDV=  2684352549 NE2=   894784182
 Dipole derivative wrt mode   1:  8.52036D-16  5.47562D-13  8.70279D+00
 Vibrational polarizability contributions from mode   1       0.0000000       0.0000000       0.6943994
 Dipole derivative wrt mode   2: -1.05542D-15 -2.30038D-12 -1.30223D+00
 Vibrational polarizability contributions from mode   2       0.0000000       0.0000000       0.0032811
 Dipole derivative wrt mode   3:  5.83198D-16  4.39585D+00 -6.64357D-12
 Vibrational polarizability contributions from mode   3       0.0000000       0.0350638       0.0000000
 Diagonal vibrational polarizability:
        0.0000000       0.0350638       0.6976805
 NorSel:  MapVib=      1      2      3
 Harmonic frequencies (cm**-1), IR intensities (KM/Mole), Raman scattering
 activities (A**4/AMU), depolarization ratios for plane and unpolarized
 incident light, reduced masses (AMU), force constants (mDyne/A),
 and normal coordinates:
                      1                      2                      3
                     A1                     A1                     B2
 Frequencies --   1713.2493              3729.4441              3851.0598
 Red. masses --      1.0825                 1.0454                 1.0810
 Frc consts  --      1.8720                 8.5665                 9.4454
 IR Inten    --     75.7386                 1.6958                19.3235
  Atom  AN      X      Y      Z        X      Y      Z        X      Y      Z
     1   8    -0.00  -0.00  -0.07     0.00  -0.00   0.05    -0.00  -0.07  -0.00
     2   1     0.00   0.43   0.56     0.00   0.58  -0.40    -0.00   0.55  -0.44
     3   1     0.00  -0.43   0.56    -0.00  -0.58  -0.40     0.00   0.55   0.44

 -------------------
 - Thermochemistry -
 -------------------
 Temperature   298.150 Kelvin.  Pressure   1.00000 Atm.
 Atom     1 has atomic number  8 and mass  15.99491
 Atom     2 has atomic number  1 and mass   1.00783
 Atom     3 has atomic number  1 and mass   1.00783
 Molecular mass:    18.01056 amu.
 Principal axes and moments of inertia in atomic units:
                           1         2         3
     Eigenvalues --     2.29317   4.17056   6.46373
           X            0.00000   0.00000   1.00000
           Y            1.00000   0.00000   0.00000
           Z            0.00000   1.00000   0.00000
 This molecule is an asymmetric top.
 Rotational symmetry number  2.
 Rotational temperatures (Kelvin)     37.77028    20.76791    13.39996
 Rotational constants (GHZ):         787.00578   432.73346   279.21028
 Zero-point vibrational energy      55589.0 (Joules/Mol)
                                   13.28609 (Kcal/Mol)
 Vibrational temperatures:   2464.98  5365.83  5540.81
          (Kelvin)
 
 Zero-point correction=                           0.021173 (Hartree/Particle)
 Thermal correction to Energy=                    0.024007
 Thermal correction to Enthalpy=                  0.024951
 Thermal correction to Gibbs Free Energy=         0.003506
 Sum of electronic and zero-point Energies=            -76.387781
 Sum of electronic and thermal Energies=               -76.384947
 Sum of electronic and thermal Enthalpies=             -76.384002
 Sum of electronic and thermal Free Energies=          -76.405448
 
                     E (Thermal)             CV                S
                      KCal/Mol        Cal/Mol-Kelvin    Cal/Mol-Kelvin
 Total                   15.065              5.997             45.136
 Electronic               0.000              0.000              0.000
 Translational            0.889              2.981             34.608
 Rotational               0.889              2.981             10.523
 Vibrational             13.287              0.035              0.005
                       Q            Log10(Q)             Ln(Q)
 Total Bot       0.244047D-01         -1.612526         -3.712979
 Total V=0       0.133731D+09          8.126232         18.711340
 Vib (Bot)       0.182538D-09         -9.738646        -22.424062
 Vib (V=0)       0.100026D+01          0.000112          0.000257
 Electronic      0.100000D+01          0.000000          0.000000
 Translational   0.300432D+07          6.477746         14.915562
 Rotational      0.445014D+02          1.648374          3.795521
 
                                                               comment:
                                                             IR Spectrum
 
     3    3                                                                 1                                                        
     8    7                                                                 7                                                        
     5    2                                                                 1                                                        
     1    9                                                                 3                                                        
 
     X    X                                                                 X                                                        
     X                                                                      X                                                        
     X                                                                      X                                                        
     X                                                                      X                                                        
     X                                                                      X                                                        
                                                                            X                                                        
                                                                            X                                                        
                                                                            X                                                        
                                                                            X                                                        
                                                                            X                                                        
                                                                            X                                                        
                                                                            X                                                        
                                                                            X                                                        
                                                                            X                                                        
                                                                            X                                                        
                                                                            X                                                        
                                                                            X                                                        
                                                                            X                                                        
                                                                            X                                                        
                                                                            X                                                        
 
 Forces in standard orientation:
 -------------------------------------------------------------------
 Center     Atomic                   Forces (Hartrees/Bohr)
 Number     Number              X              Y              Z
 -------------------------------------------------------------------
      1        8           0.000000000   -0.000000000   -0.000080636
      2        1           0.000000000   -0.000195156    0.000040318
      3        1          -0.000000000    0.000195156    0.000040318
 -------------------------------------------------------------------
 ***** Axes restored to original set *****
 Rotating derivatives, DoTrsp=F IDiff=-2 LEDeriv=    484 LFDPrp=       0 LDFDPr=       0.
 -------------------------------------------------------------------
 Center     Atomic                   Forces (Hartrees/Bohr)
 Number     Number              X              Y              Z
 -------------------------------------------------------------------
      1        8           0.000000000    0.000080636   -0.000000000
      2        1           0.000195156   -0.000040318   -0.000000000
      3        1          -0.000195156   -0.000040318    0.000000000
 -------------------------------------------------------------------
 Cartesian Forces:  Max     0.000195156 RMS     0.000097710
 Z-matrix is all fixed cartesians, so copy forces.
 Force constants in Cartesian coordinates: 
                1             2             3             4             5 
      1  0.648264D+00
      2  0.000000D+00  0.453400D+00
      3  0.000000D+00  0.000000D+00 -0.391980D-04
      4 -0.324132D+00  0.187159D+00  0.000000D+00  0.355644D+00
      5  0.255060D+00 -0.226700D+00  0.000000D+00 -0.221110D+00  0.213633D+00
      6  0.000000D+00  0.000000D+00  0.195990D-04  0.000000D+00  0.000000D+00
      7 -0.324132D+00 -0.187159D+00  0.000000D+00 -0.315115D-01 -0.339509D-01
      8 -0.255060D+00 -0.226700D+00  0.000000D+00  0.339509D-01  0.130669D-01
      9  0.000000D+00  0.000000D+00  0.195990D-04  0.000000D+00  0.000000D+00
                6             7             8             9 
      6 -0.693809D-04
      7  0.000000D+00  0.355644D+00
      8  0.000000D+00  0.221110D+00  0.213633D+00
      9  0.497819D-04  0.000000D+00  0.000000D+00 -0.693809D-04
 Final forces over variables, Energy=-7.64089539D+01:
  6.15555783D-17 1.95155670D-04-1.95155670D-04 8.06358855D-05
 -4.03179427D-05-4.03179427D-05-6.97076891D-16-2.45864251D-17
  7.21663316D-16
 Leave Link  716 at Tue Sep 10 12:26:12 2019, MaxMem=  2684354560 cpu:         0.2
 (Enter /soft/gaussian/09-e.01/g09/l103.exe)

 GradGradGradGradGradGradGradGradGradGradGradGradGradGradGradGradGradGrad
 Berny optimization.
 Search for a local minimum.
 Step number   1 out of a maximum of    2
 All quantities printed in internal units (Hartrees-Bohrs-Radians)
 Second derivative matrix not updated -- analytic derivatives used.
 The second derivative matrix:
                          X1        Y1        Z1        X2        Y2
           X1           0.64826
           Y1          -0.00000   0.45340
           Z1          -0.00000  -0.00000  -0.00004
           X2          -0.32413   0.18716  -0.00000   0.35564
           Y2           0.25506  -0.22670   0.00000  -0.22111   0.21363
           Z2          -0.00000   0.00000   0.00002   0.00000  -0.00000
           X3          -0.32413  -0.18716   0.00000  -0.03151  -0.03395
           Y3          -0.25506  -0.22670   0.00000   0.03395   0.01307
           Z3          -0.00000  -0.00000   0.00002   0.00000  -0.00000
                          Z2        X3        Y3        Z3
           Z2          -0.00007
           X3           0.00000   0.35564
           Y3           0.00000   0.22111   0.21363
           Z3           0.00005   0.00000   0.00000  -0.00007
 ITU=  0
     Eigenvalues ---    0.16346   0.75222   0.93839
 Angle between quadratic step and forces=  38.90 degrees.
 ClnCor:  largest displacement from symmetrization is 1.67D-16 for atom     3.
 Linear search not attempted -- first point.
 ClnCor:  largest displacement from symmetrization is 2.47D-32 for atom     2.
 B after Tr=    -0.000000   -0.000100    0.000000
         Rot=    1.000000   -0.000000    0.000000    0.000000 Ang=   0.00 deg.
 Variable       Old X    -DE/DX   Delta X   Delta X   Delta X     New X
                                 (Linear)    (Quad)   (Total)
    X1        0.00000   0.00000   0.00000  -0.00000  -0.00000  -0.00000
    Y1        0.22637   0.00008   0.00000  -0.00016  -0.00026   0.22610
    Z1        0.00000  -0.00000   0.00000  -0.00000   0.00000   0.00000
    X2        1.43843   0.00020   0.00000   0.00070   0.00070   1.43913
    Y2       -0.90547  -0.00004   0.00000   0.00023   0.00013  -0.90534
    Z2        0.00000  -0.00000   0.00000   0.00000   0.00000   0.00000
    X3       -1.43843  -0.00020   0.00000  -0.00070  -0.00070  -1.43913
    Y3       -0.90547  -0.00004   0.00000   0.00023   0.00013  -0.90534
    Z3       -0.00000   0.00000   0.00000  -0.00000  -0.00000  -0.00000
         Item               Value     Threshold  Converged?
 Maximum Force            0.000195     0.000450     YES
 RMS     Force            0.000098     0.000300     YES
 Maximum Displacement     0.000696     0.001800     YES
 RMS     Displacement     0.000345     0.001200     YES
 Predicted change in Energy=-1.197986D-07
 Optimization completed.
    -- Stationary point found.
 GradGradGradGradGradGradGradGradGradGradGradGradGradGradGradGradGradGrad

 Leave Link  103 at Tue Sep 10 12:26:12 2019, MaxMem=  2684354560 cpu:         0.1
 (Enter /soft/gaussian/09-e.01/g09/l9999.exe)

 Test job not archived.
 1\1\GINC-B444\Freq\RB3LYP\6-31G(d)\H2O1\ELLIOTT\10-Sep-2019\0\\#P b3ly
 p/6-31g* # SCF=(xqc) # Freq=() # IOp(7/33=1) # int=ultrafine\\comment:
 \\0,1\O,0.,0.119788,0.\H,0.761186,-0.479154,0.\H,-0.761186,-0.479154,0
 .\\Version=ES64L-G09RevE.01\State=1-A1\HF=-76.4089539\RMSD=7.919e-10\R
 MSF=9.771e-05\ZeroPoint=0.0211727\Thermal=0.0240073\Dipole=0.,-0.82464
 33,0.\DipoleDeriv=-0.4097911,0.,0.,0.,-0.3350571,0.,0.,0.,-0.7285853,0
 .2048956,0.0917769,0.,0.1254227,0.1675286,0.,0.,0.,0.3642927,0.2048956
 ,-0.0917769,0.,-0.1254227,0.1675286,0.,0.,0.,0.3642927\Polar=7.3898333
 ,0.,5.4245762,0.,0.,2.8301404\PG=C02V [C2(O1),SGV(H2)]\NImag=0\\0.6482
 6421,0.,0.45339978,0.,0.,-0.00003920,-0.32413211,0.18715866,0.,0.35564
 356,0.25506039,-0.22669989,0.,-0.22110953,0.21363300,0.,0.,0.00001960,
 0.,0.,-0.00006938,-0.32413211,-0.18715866,0.,-0.03151145,-0.03395086,0
 .,0.35564356,-0.25506039,-0.22669989,0.,0.03395086,0.01306689,0.,0.221
 10953,0.21363300,0.,0.,0.00001960,0.,0.,0.00004978,0.,0.,-0.00006938\\
 0.,-0.00008064,0.,-0.00019516,0.00004032,0.,0.00019516,0.00004032,0.\\
 \@


 BE NOT THE FIRST BY WHOM THE NEW ARE TRIED,
 NOR YET THE THE LAST TO LAY THE OLD ASIDE.

                          -- ALEXANDER POPE
 Job cpu time:       0 days  0 hours  0 minutes 20.4 seconds.
 File lengths (MBytes):  RWF=    132 Int=      0 D2E=      0 Chk=      2 Scr=      2
 Normal termination of Gaussian 09 at Tue Sep 10 12:26:12 2019.
