 Entering Gaussian System, Link 0=g09
 Input=run.inp
 Output=run.out
 Initial command:
 /soft/gaussian/09-e.01/g09/l1.exe "/blues/gpfs/home/elliott/Packages/PACC/moldriver/rcdriver/rundir/SPC/CH3/WCYWZMWISLQXQU/0/2/UHFFFAOYSA-N/ezvN4wU/RUN/OPTI/A00/Gau-53925.inp" -scrdir="/blues/gpfs/home/elliott/Packages/PACC/moldriver/rcdriver/rundir/SPC/CH3/WCYWZMWISLQXQU/0/2/UHFFFAOYSA-N/ezvN4wU/RUN/OPTI/A00/"
 Entering Link 1 = /soft/gaussian/09-e.01/g09/l1.exe PID=     53926.
  
 Copyright (c) 1988,1990,1992,1993,1995,1998,2003,2009,2015,
            Gaussian, Inc.  All Rights Reserved.
  
 This is part of the Gaussian(R) 09 program.  It is based on
 the Gaussian(R) 03 system (copyright 2003, Gaussian, Inc.),
 the Gaussian(R) 98 system (copyright 1998, Gaussian, Inc.),
 the Gaussian(R) 94 system (copyright 1995, Gaussian, Inc.),
 the Gaussian 92(TM) system (copyright 1992, Gaussian, Inc.),
 the Gaussian 90(TM) system (copyright 1990, Gaussian, Inc.),
 the Gaussian 88(TM) system (copyright 1988, Gaussian, Inc.),
 the Gaussian 86(TM) system (copyright 1986, Carnegie Mellon
 University), and the Gaussian 82(TM) system (copyright 1983,
 Carnegie Mellon University). Gaussian is a federally registered
 trademark of Gaussian, Inc.
  
 This software contains proprietary and confidential information,
 including trade secrets, belonging to Gaussian, Inc.
  
 This software is provided under written license and may be
 used, copied, transmitted, or stored only in accord with that
 written license.
  
 The following legend is applicable only to US Government
 contracts under FAR:
  
                    RESTRICTED RIGHTS LEGEND
  
 Use, reproduction and disclosure by the US Government is
 subject to restrictions as set forth in subparagraphs (a)
 and (c) of the Commercial Computer Software - Restricted
 Rights clause in FAR 52.227-19.
  
 Gaussian, Inc.
 340 Quinnipiac St., Bldg. 40, Wallingford CT 06492
  
  
 ---------------------------------------------------------------
 Warning -- This program may not be used in any manner that
 competes with the business of Gaussian, Inc. or will provide
 assistance to any competitor of Gaussian, Inc.  The licensee
 of this program is prohibited from giving any competitor of
 Gaussian, Inc. access to this program.  By using this program,
 the user acknowledges that Gaussian, Inc. is engaged in the
 business of creating and licensing software in the field of
 computational chemistry and represents and warrants to the
 licensee that it is not a competitor of Gaussian, Inc. and that
 it will not use this program in any manner prohibited above.
 ---------------------------------------------------------------
  

 Cite this work as:
 Gaussian 09, Revision E.01,
 M. J. Frisch, G. W. Trucks, H. B. Schlegel, G. E. Scuseria, 
 M. A. Robb, J. R. Cheeseman, G. Scalmani, V. Barone, B. Mennucci, 
 G. A. Petersson, H. Nakatsuji, M. Caricato, X. Li, H. P. Hratchian, 
 A. F. Izmaylov, J. Bloino, G. Zheng, J. L. Sonnenberg, M. Hada, 
 M. Ehara, K. Toyota, R. Fukuda, J. Hasegawa, M. Ishida, T. Nakajima, 
 Y. Honda, O. Kitao, H. Nakai, T. Vreven, J. A. Montgomery, Jr., 
 J. E. Peralta, F. Ogliaro, M. Bearpark, J. J. Heyd, E. Brothers, 
 K. N. Kudin, V. N. Staroverov, T. Keith, R. Kobayashi, J. Normand, 
 K. Raghavachari, A. Rendell, J. C. Burant, S. S. Iyengar, J. Tomasi, 
 M. Cossi, N. Rega, J. M. Millam, M. Klene, J. E. Knox, J. B. Cross, 
 V. Bakken, C. Adamo, J. Jaramillo, R. Gomperts, R. E. Stratmann, 
 O. Yazyev, A. J. Austin, R. Cammi, C. Pomelli, J. W. Ochterski, 
 R. L. Martin, K. Morokuma, V. G. Zakrzewski, G. A. Voth, 
 P. Salvador, J. J. Dannenberg, S. Dapprich, A. D. Daniels, 
 O. Farkas, J. B. Foresman, J. V. Ortiz, J. Cioslowski, 
 and D. J. Fox, Gaussian, Inc., Wallingford CT, 2013.
 
 ******************************************
 Gaussian 09:  ES64L-G09RevE.01 30-Nov-2015
                23-Aug-2019 
 ******************************************
 %mem=20GB
 %NProcShared=10
 Will use up to   10 processors via shared memory.
 ------------------------------------------------------
 #P b3lyp/cc-pvdz # SCF=(xqc) # POpt=() # int=ultrafine
 ------------------------------------------------------
 1/10=7,14=-1,26=4,38=1/1,3;
 2/12=2,17=6,18=5,29=3,40=1/2;
 3/5=16,11=2,16=1,25=1,30=1,71=1,74=-5,75=-5/1,2,3;
 4//1;
 5/5=2,8=3,13=1,38=5/2,8;
 6/7=2,8=2,9=2,10=2,28=1/1;
 7/29=1/1,2,3,16;
 1/10=7,14=-1,26=4/3(2);
 2/29=3/2;
 99//99;
 2/29=3/2;
 3/5=16,11=2,16=1,25=1,30=1,71=1,74=-5,75=-5/1,2,3;
 4/5=5,16=3,69=1/1;
 5/5=2,8=3,13=1,38=5/2,8;
 7//1,2,3,16;
 1/14=-1,26=4/3(-5);
 2/29=3/2;
 6/7=2,8=2,9=2,10=2,19=2,28=1/1;
 99/9=1/99;
 Leave Link    1 at Fri Aug 23 16:55:51 2019, MaxMem=  2684354560 cpu:         0.6
 (Enter /soft/gaussian/09-e.01/g09/l101.exe)
 --------
 comment:
 --------
 Symbolic Z-matrix:
 Charge =  0 Multiplicity = 2
 C
 H                    1    R1
 H                    1    R2       2    A2
 H                    1    R3       2    A3       3    D3       0
       Variables:
  R1                    1.08255                  
  R2                    1.08255                  
  A2                  120.                       
  R3                    1.08255                  
  A3                  120.                       
  D3                  180.                       
 
 NAtoms=      4 NQM=        4 NQMF=       0 NMMI=      0 NMMIF=      0
                NMic=       0 NMicF=      0.
                    Isotopes and Nuclear Properties:
 (Nuclear quadrupole moments (NQMom) in fm**2, nuclear magnetic moments (NMagM)
  in nuclear magnetons)

  Atom         1           2           3           4
 IAtWgt=          12           1           1           1
 AtmWgt=  12.0000000   1.0078250   1.0078250   1.0078250
 NucSpn=           0           1           1           1
 AtZEff=   0.0000000   0.0000000   0.0000000   0.0000000
 NQMom=    0.0000000   0.0000000   0.0000000   0.0000000
 NMagM=    0.0000000   2.7928460   2.7928460   2.7928460
 AtZNuc=   6.0000000   1.0000000   1.0000000   1.0000000
 Leave Link  101 at Fri Aug 23 16:55:51 2019, MaxMem=  2684354560 cpu:         0.6
 (Enter /soft/gaussian/09-e.01/g09/l103.exe)

 GradGradGradGradGradGradGradGradGradGradGradGradGradGradGradGradGradGrad
 Berny optimization.
 Initialization pass.
                       ----------------------------
                       !    Initial Parameters    !
                       ! (Angstroms and Degrees)  !
 ----------------------                            ----------------------
 !      Name          Value   Derivative information (Atomic Units)     !
 ------------------------------------------------------------------------
 !       R1          1.0825   estimate D2E/DX2                          !
 !       R2          1.0825   estimate D2E/DX2                          !
 !       A2        120.0      estimate D2E/DX2                          !
 !       R3          1.0825   estimate D2E/DX2                          !
 !       A3        120.0      estimate D2E/DX2                          !
 !       D3        180.0      estimate D2E/DX2                          !
 ------------------------------------------------------------------------
 Trust Radius=3.00D-01 FncErr=1.00D-07 GrdErr=1.00D-06
 Number of steps in this run=     20 maximum allowed number of steps=    100.
 GradGradGradGradGradGradGradGradGradGradGradGradGradGradGradGradGradGrad

 Leave Link  103 at Fri Aug 23 16:55:51 2019, MaxMem=  2684354560 cpu:         0.1
 (Enter /soft/gaussian/09-e.01/g09/l202.exe)
 ---------------------------------------------------------------------------------------------------
                            Z-MATRIX (ANGSTROMS AND DEGREES)
   CD    Cent   Atom    N1       Length/X        N2       Alpha/Y        N3        Beta/Z          J
 ---------------------------------------------------------------------------------------------------
      1      1  C 
      2      2  H        1   1.082548(     1)
      3      3  H        1   1.082548(     2)      2  120.000(     4)
      4      4  H        1   1.082548(     3)      2  120.000(     5)      3  180.000(     6)      0
 ---------------------------------------------------------------------------------------------------
                         Z-Matrix orientation:                         
 ---------------------------------------------------------------------
 Center     Atomic      Atomic             Coordinates (Angstroms)
 Number     Number       Type             X           Y           Z
 ---------------------------------------------------------------------
      1          6           0        0.000000    0.000000    0.000000
      2          1           0        0.000000    0.000000    1.082548
      3          1           0        0.937514    0.000000   -0.541274
      4          1           0       -0.937514   -0.000000   -0.541274
 ---------------------------------------------------------------------
                    Distance matrix (angstroms):
                    1          2          3          4
     1  C    0.000000
     2  H    1.082548   0.000000
     3  H    1.082548   1.875028   0.000000
     4  H    1.082548   1.875028   1.875028   0.000000
 Stoichiometry    CH3(2)
 Framework group  D3H[O(C),3C2(H)]
 Deg. of freedom     1
 Full point group                 D3H     NOp  12
 Largest Abelian subgroup         C2V     NOp   4
 Largest concise Abelian subgroup C2      NOp   2
                         Standard orientation:                         
 ---------------------------------------------------------------------
 Center     Atomic      Atomic             Coordinates (Angstroms)
 Number     Number       Type             X           Y           Z
 ---------------------------------------------------------------------
      1          6           0        0.000000    0.000000    0.000000
      2          1           0        0.000000    1.082548   -0.000000
      3          1           0        0.937514   -0.541274   -0.000000
      4          1           0       -0.937514   -0.541274   -0.000000
 ---------------------------------------------------------------------
 Rotational constants (GHZ):    285.2636730    285.2636730    142.6318365
 Leave Link  202 at Fri Aug 23 16:55:51 2019, MaxMem=  2684354560 cpu:         0.2
 (Enter /soft/gaussian/09-e.01/g09/l301.exe)
 Standard basis: CC-pVDZ (5D, 7F)
 Ernie: Thresh=  0.10000D-02 Tol=  0.10000D-05 Strict=F.
 Ernie:  2 primitive shells out of 37 were deleted.
 There are    15 symmetry adapted cartesian basis functions of A1  symmetry.
 There are     2 symmetry adapted cartesian basis functions of A2  symmetry.
 There are     8 symmetry adapted cartesian basis functions of B1  symmetry.
 There are     5 symmetry adapted cartesian basis functions of B2  symmetry.
 There are    14 symmetry adapted basis functions of A1  symmetry.
 There are     2 symmetry adapted basis functions of A2  symmetry.
 There are     8 symmetry adapted basis functions of B1  symmetry.
 There are     5 symmetry adapted basis functions of B2  symmetry.
    29 basis functions,    54 primitive gaussians,    30 cartesian basis functions
     5 alpha electrons        4 beta electrons
       nuclear repulsion energy         9.6455321760 Hartrees.
 IExCor=  402 DFT=T Ex+Corr=B3LYP ExCW=0 ScaHFX=  0.200000
 ScaDFX=  0.800000  0.720000  1.000000  0.810000 ScalE2=  1.000000  1.000000
 IRadAn=      5 IRanWt=     -1 IRanGd=            0 ICorTp=0 IEmpDi=  4
 NAtoms=    4 NActive=    4 NUniq=    2 SFac= 4.00D+00 NAtFMM=   60 NAOKFM=F Big=F
 Integral buffers will be    131072 words long.
 Raffenetti 2 integral format.
 Two-electron integral symmetry is turned on.
 Leave Link  301 at Fri Aug 23 16:55:51 2019, MaxMem=  2684354560 cpu:         0.7
 (Enter /soft/gaussian/09-e.01/g09/l302.exe)
 NPDir=0 NMtPBC=     1 NCelOv=     1 NCel=       1 NClECP=     1 NCelD=      1
         NCelK=      1 NCelE2=     1 NClLst=     1 CellRange=     0.0.
 One-electron integrals computed using PRISM.
 One-electron integral symmetry used in STVInt
 NBasis=    29 RedAO= T EigKep=  4.75D-02  NBF=    14     2     8     5
 NBsUse=    29 1.00D-06 EigRej= -1.00D+00 NBFU=    14     2     8     5
 Precomputing XC quadrature grid using
 IXCGrd= 4 IRadAn=           5 IRanWt=          -1 IRanGd=           0 AccXCQ= 0.00D+00.
 Generated NRdTot=       0 NPtTot=           0 NUsed=           0 NTot=          32
 NSgBfM=    30    30    30    30    30 MxSgAt=     4 MxSgA2=     4.
 Leave Link  302 at Fri Aug 23 16:55:51 2019, MaxMem=  2684354560 cpu:         1.9
 (Enter /soft/gaussian/09-e.01/g09/l303.exe)
 DipDrv:  MaxL=1.
 Leave Link  303 at Fri Aug 23 16:55:51 2019, MaxMem=  2684354560 cpu:         0.2
 (Enter /soft/gaussian/09-e.01/g09/l401.exe)
 ExpMin= 1.22D-01 ExpMax= 6.67D+03 ExpMxC= 2.28D+02 IAcc=3 IRadAn=         5 AccDes= 0.00D+00
 Harris functional with IExCor=  402 and IRadAn=       5 diagonalized for initial guess.
 HarFok:  IExCor=  402 AccDes= 0.00D+00 IRadAn=         5 IDoV= 1 UseB2=F ITyADJ=14
 ICtDFT=  3500011 ScaDFX=  1.000000  1.000000  1.000000  1.000000
 FoFCou: FMM=F IPFlag=           0 FMFlag=      100000 FMFlg1=           0
         NFxFlg=           0 DoJE=T BraDBF=F KetDBF=T FulRan=T
         wScrn=  0.000000 ICntrl=     500 IOpCl=  0 I1Cent=   200000004 NGrid=           0
         NMat0=    1 NMatS0=      1 NMatT0=    0 NMatD0=    1 NMtDS0=    0 NMtDT0=    0
 Petite list used in FoFCou.
 Harris En= -39.8287882673221    
 JPrj=0 DoOrth=F DoCkMO=F.
 Initial guess orbital symmetries:
 Alpha Orbitals:
       Occupied  (A1') (A1') (E') (E') (A2")
       Virtual   (A1') (E') (E') (E') (E') (A1') (A2") (E') (E')
                 (A1') (E") (E") (A2') (E') (E') (A1') (A2") (E")
                 (E") (E') (E') (A1') (E') (E')
 Beta  Orbitals:
       Occupied  (A1') (A1') (E') (E')
       Virtual   (A2") (A1') (E') (E') (E') (E') (A1') (A2") (E')
                 (E') (A1') (E") (E") (A2') (E') (E') (A1') (A2")
                 (E") (E") (E') (E') (A1') (E') (E')
 The electronic state of the initial guess is 2-A2".
 Initial guess <Sx>= 0.0000 <Sy>= 0.0000 <Sz>= 0.5000 <S**2>= 0.7500 S= 0.5000
 Leave Link  401 at Fri Aug 23 16:55:52 2019, MaxMem=  2684354560 cpu:         1.8
 (Enter /soft/gaussian/09-e.01/g09/l502.exe)
 UHF open shell SCF:
 Using DIIS extrapolation, IDIIS=  1040.
 Integral symmetry usage will be decided dynamically.
 Keep R1 and R2 ints in memory in symmetry-blocked form, NReq=968383.
 IVT=        9380 IEndB=        9380 NGot=  2684354560 MDV=  2684290836
 LenX=  2684290836 LenY=  2684289495
 Requested convergence on RMS density matrix=1.00D-08 within  64 cycles.
 Requested convergence on MAX density matrix=1.00D-06.
 Requested convergence on             energy=1.00D-06.
 No special actions if energy rises.
 FoFCou: FMM=F IPFlag=           0 FMFlag=           0 FMFlg1=           0
         NFxFlg=           0 DoJE=F BraDBF=F KetDBF=F FulRan=T
         wScrn=  0.000000 ICntrl=     600 IOpCl=  0 I1Cent=           0 NGrid=           0
         NMat0=    1 NMatS0=    435 NMatT0=    0 NMatD0=    1 NMtDS0=    0 NMtDT0=    0
 Petite list used in FoFCou.
 Integral accuracy reduced to 1.0D-05 until final iterations.

 Cycle   1  Pass 0  IDiag  1:
 E= -39.7971079371517    
 DIIS: error= 4.42D-02 at cycle   1 NSaved=   1.
 NSaved= 1 IEnMin= 1 EnMin= -39.7971079371517     IErMin= 1 ErrMin= 4.42D-02
 ErrMax= 4.42D-02  0.00D+00 EMaxC= 1.00D-01 BMatC= 1.32D-01 BMatP= 1.32D-01
 IDIUse=3 WtCom= 5.58D-01 WtEn= 4.42D-01
 Coeff-Com:  0.100D+01
 Coeff-En:   0.100D+01
 Coeff:      0.100D+01
 Gap=     0.240 Goal=   None    Shift=    0.000
 Gap=     0.370 Goal=   None    Shift=    0.000
 GapD=    0.240 DampG=1.000 DampE=0.500 DampFc=0.5000 IDamp=-1.
 Damping current iteration by 5.00D-01
 RMSDP=1.11D-02 MaxDP=1.51D-01              OVMax= 1.43D-01

 Cycle   2  Pass 0  IDiag  1:
 E= -39.8178232183786     Delta-E=       -0.020715281227 Rises=F Damp=T
 DIIS: error= 8.52D-03 at cycle   2 NSaved=   2.
 NSaved= 2 IEnMin= 2 EnMin= -39.8178232183786     IErMin= 2 ErrMin= 8.52D-03
 ErrMax= 8.52D-03  0.00D+00 EMaxC= 1.00D-01 BMatC= 3.40D-03 BMatP= 1.32D-01
 IDIUse=3 WtCom= 9.15D-01 WtEn= 8.52D-02
 Coeff-Com:  0.189D-02 0.998D+00
 Coeff-En:   0.000D+00 0.100D+01
 Coeff:      0.173D-02 0.998D+00
 Gap=     0.300 Goal=   None    Shift=    0.000
 Gap=     0.345 Goal=   None    Shift=    0.000
 RMSDP=1.34D-03 MaxDP=1.44D-02 DE=-2.07D-02 OVMax= 6.85D-02

 Cycle   3  Pass 0  IDiag  1:
 E= -39.8388792817160     Delta-E=       -0.021056063337 Rises=F Damp=F
 DIIS: error= 1.27D-03 at cycle   3 NSaved=   3.
 NSaved= 3 IEnMin= 3 EnMin= -39.8388792817160     IErMin= 3 ErrMin= 1.27D-03
 ErrMax= 1.27D-03  0.00D+00 EMaxC= 1.00D-01 BMatC= 7.57D-05 BMatP= 3.40D-03
 IDIUse=3 WtCom= 9.87D-01 WtEn= 1.27D-02
 Coeff-Com: -0.550D-02-0.160D-01 0.102D+01
 Coeff-En:   0.000D+00 0.000D+00 0.100D+01
 Coeff:     -0.543D-02-0.158D-01 0.102D+01
 Gap=     0.304 Goal=   None    Shift=    0.000
 Gap=     0.347 Goal=   None    Shift=    0.000
 RMSDP=2.26D-04 MaxDP=2.87D-03 DE=-2.11D-02 OVMax= 3.17D-03

 Cycle   4  Pass 0  IDiag  1:
 E= -39.8389242807737     Delta-E=       -0.000044999058 Rises=F Damp=F
 DIIS: error= 3.52D-04 at cycle   4 NSaved=   4.
 NSaved= 4 IEnMin= 4 EnMin= -39.8389242807737     IErMin= 4 ErrMin= 3.52D-04
 ErrMax= 3.52D-04  0.00D+00 EMaxC= 1.00D-01 BMatC= 7.66D-06 BMatP= 7.57D-05
 IDIUse=3 WtCom= 9.96D-01 WtEn= 3.52D-03
 Coeff-Com: -0.114D-02-0.991D-02-0.279D+00 0.129D+01
 Coeff-En:   0.000D+00 0.000D+00 0.000D+00 0.100D+01
 Coeff:     -0.114D-02-0.988D-02-0.278D+00 0.129D+01
 Gap=     0.305 Goal=   None    Shift=    0.000
 Gap=     0.348 Goal=   None    Shift=    0.000
 RMSDP=9.86D-05 MaxDP=1.04D-03 DE=-4.50D-05 OVMax= 1.37D-03

 Cycle   5  Pass 0  IDiag  1:
 E= -39.8389302425842     Delta-E=       -0.000005961810 Rises=F Damp=F
 DIIS: error= 6.62D-05 at cycle   5 NSaved=   5.
 NSaved= 5 IEnMin= 5 EnMin= -39.8389302425842     IErMin= 5 ErrMin= 6.62D-05
 ErrMax= 6.62D-05  0.00D+00 EMaxC= 1.00D-01 BMatC= 2.63D-07 BMatP= 7.66D-06
 IDIUse=1 WtCom= 1.00D+00 WtEn= 0.00D+00
 Coeff-Com:  0.707D-03 0.325D-02 0.693D-02-0.256D+00 0.125D+01
 Coeff:      0.707D-03 0.325D-02 0.693D-02-0.256D+00 0.125D+01
 Gap=     0.305 Goal=   None    Shift=    0.000
 Gap=     0.348 Goal=   None    Shift=    0.000
 RMSDP=2.12D-05 MaxDP=2.03D-04 DE=-5.96D-06 OVMax= 2.91D-04

 Cycle   6  Pass 0  IDiag  1:
 E= -39.8389304630629     Delta-E=       -0.000000220479 Rises=F Damp=F
 DIIS: error= 5.53D-06 at cycle   6 NSaved=   6.
 NSaved= 6 IEnMin= 6 EnMin= -39.8389304630629     IErMin= 6 ErrMin= 5.53D-06
 ErrMax= 5.53D-06  0.00D+00 EMaxC= 1.00D-01 BMatC= 1.67D-09 BMatP= 2.63D-07
 IDIUse=1 WtCom= 1.00D+00 WtEn= 0.00D+00
 Coeff-Com: -0.558D-04-0.349D-03 0.448D-02 0.904D-02-0.155D+00 0.114D+01
 Coeff:     -0.558D-04-0.349D-03 0.448D-02 0.904D-02-0.155D+00 0.114D+01
 Gap=     0.305 Goal=   None    Shift=    0.000
 Gap=     0.348 Goal=   None    Shift=    0.000
 RMSDP=1.74D-06 MaxDP=1.72D-05 DE=-2.20D-07 OVMax= 2.43D-05

 Initial convergence to 1.0D-05 achieved.  Increase integral accuracy.
 Cycle   7  Pass 1  IDiag  1:
 E= -39.8389301138926     Delta-E=        0.000000349170 Rises=F Damp=F
 DIIS: error= 5.78D-07 at cycle   1 NSaved=   1.
 NSaved= 1 IEnMin= 1 EnMin= -39.8389301138926     IErMin= 1 ErrMin= 5.78D-07
 ErrMax= 5.78D-07  0.00D+00 EMaxC= 1.00D-01 BMatC= 1.54D-11 BMatP= 1.54D-11
 IDIUse=1 WtCom= 1.00D+00 WtEn= 0.00D+00
 Coeff-Com:  0.100D+01
 Coeff:      0.100D+01
 Gap=     0.305 Goal=   None    Shift=    0.000
 Gap=     0.348 Goal=   None    Shift=    0.000
 RMSDP=1.74D-06 MaxDP=1.72D-05 DE= 3.49D-07 OVMax= 1.70D-06

 Cycle   8  Pass 1  IDiag  1:
 E= -39.8389301138992     Delta-E=       -0.000000000007 Rises=F Damp=F
 DIIS: error= 2.69D-07 at cycle   2 NSaved=   2.
 NSaved= 2 IEnMin= 2 EnMin= -39.8389301138992     IErMin= 2 ErrMin= 2.69D-07
 ErrMax= 2.69D-07  0.00D+00 EMaxC= 1.00D-01 BMatC= 3.24D-12 BMatP= 1.54D-11
 IDIUse=1 WtCom= 1.00D+00 WtEn= 0.00D+00
 Coeff-Com:  0.199D+00 0.801D+00
 Coeff:      0.199D+00 0.801D+00
 Gap=     0.305 Goal=   None    Shift=    0.000
 Gap=     0.348 Goal=   None    Shift=    0.000
 RMSDP=4.59D-08 MaxDP=8.77D-07 DE=-6.62D-12 OVMax= 7.12D-07

 Cycle   9  Pass 1  IDiag  1:
 E= -39.8389301139001     Delta-E=       -0.000000000001 Rises=F Damp=F
 DIIS: error= 1.62D-07 at cycle   3 NSaved=   3.
 NSaved= 3 IEnMin= 3 EnMin= -39.8389301139001     IErMin= 3 ErrMin= 1.62D-07
 ErrMax= 1.62D-07  0.00D+00 EMaxC= 1.00D-01 BMatC= 1.19D-12 BMatP= 3.24D-12
 IDIUse=1 WtCom= 1.00D+00 WtEn= 0.00D+00
 Coeff-Com: -0.101D+00 0.351D+00 0.751D+00
 Coeff:     -0.101D+00 0.351D+00 0.751D+00
 Gap=     0.305 Goal=   None    Shift=    0.000
 Gap=     0.348 Goal=   None    Shift=    0.000
 RMSDP=1.78D-08 MaxDP=2.52D-07 DE=-8.67D-13 OVMax= 3.28D-07

 Cycle  10  Pass 1  IDiag  1:
 E= -39.8389301139004     Delta-E=       -0.000000000000 Rises=F Damp=F
 DIIS: error= 1.24D-08 at cycle   4 NSaved=   4.
 NSaved= 4 IEnMin= 4 EnMin= -39.8389301139004     IErMin= 4 ErrMin= 1.24D-08
 ErrMax= 1.24D-08  0.00D+00 EMaxC= 1.00D-01 BMatC= 1.16D-14 BMatP= 1.19D-12
 IDIUse=1 WtCom= 1.00D+00 WtEn= 0.00D+00
 Coeff-Com:  0.143D-01-0.106D+00-0.182D+00 0.127D+01
 Coeff:      0.143D-01-0.106D+00-0.182D+00 0.127D+01
 Gap=     0.305 Goal=   None    Shift=    0.000
 Gap=     0.348 Goal=   None    Shift=    0.000
 RMSDP=4.24D-09 MaxDP=3.97D-08 DE=-3.69D-13 OVMax= 5.90D-08

 SCF Done:  E(UB3LYP) =  -39.8389301139     A.U. after   10 cycles
            NFock= 10  Conv=0.42D-08     -V/T= 2.0088
 <Sx>= 0.0000 <Sy>= 0.0000 <Sz>= 0.5000 <S**2>= 0.7536 S= 0.5018
 <L.S>= 0.000000000000E+00
 KE= 3.948992286474D+01 PE=-1.110900902126D+02 EE= 2.211570505789D+01
 Annihilation of the first spin contaminant:
 S**2 before annihilation     0.7536,   after     0.7500
 Leave Link  502 at Fri Aug 23 16:55:52 2019, MaxMem=  2684354560 cpu:         2.4
 (Enter /soft/gaussian/09-e.01/g09/l508.exe)
 QCSCF skips out because SCF is already converged.
 Leave Link  508 at Fri Aug 23 16:55:52 2019, MaxMem=  2684354560 cpu:         0.0
 (Enter /soft/gaussian/09-e.01/g09/l601.exe)
 Copying SCF densities to generalized density rwf, IOpCl= 1 IROHF=0.

 **********************************************************************

            Population analysis using the SCF density.

 **********************************************************************

 Orbital symmetries:
 Alpha Orbitals:
       Occupied  (A1') (A1') (E') (E') (A2")
       Virtual   (A1') (E') (E') (E') (E') (A2") (A1') (E') (E')
                 (A1') (E") (E") (A2') (E') (E') (A1') (A2") (E")
                 (E") (E') (E') (A1') (E') (E')
 Beta  Orbitals:
       Occupied  (A1') (A1') (E') (E')
       Virtual   (A2") (A1') (E') (E') (E') (E') (A1') (A2") (E')
                 (E') (A1') (E") (E") (A2') (E') (E') (A1') (A2")
                 (E") (E") (E') (E') (A1') (E') (E')
 The electronic state is 2-A2".
 Alpha  occ. eigenvalues --  -10.19655  -0.68406  -0.41776  -0.41776  -0.22971
 Alpha virt. eigenvalues --    0.07495   0.14334   0.14334   0.43558   0.43558
 Alpha virt. eigenvalues --    0.47367   0.49195   0.65952   0.65952   0.85682
 Alpha virt. eigenvalues --    0.96226   0.96226   1.36125   1.45782   1.45782
 Alpha virt. eigenvalues --    1.49171   1.60138   1.84452   1.84452   2.09472
 Alpha virt. eigenvalues --    2.09472   2.46574   2.51136   2.51136
  Beta  occ. eigenvalues --  -10.18232  -0.64339  -0.40761  -0.40761
  Beta virt. eigenvalues --   -0.06001   0.08538   0.14735   0.14735   0.43867
  Beta virt. eigenvalues --    0.43867   0.52096   0.54799   0.66708   0.66708
  Beta virt. eigenvalues --    0.88516   1.00016   1.00016   1.35775   1.46115
  Beta virt. eigenvalues --    1.46115   1.55652   1.61349   1.87490   1.87490
  Beta virt. eigenvalues --    2.09787   2.09787   2.47159   2.51892   2.51892
          Condensed to atoms (all electrons):
               1          2          3          4
     1  C    4.912733   0.410180   0.410180   0.410180
     2  H    0.410180   0.600730  -0.029334  -0.029334
     3  H    0.410180  -0.029334   0.600730  -0.029334
     4  H    0.410180  -0.029334  -0.029334   0.600730
          Atomic-Atomic Spin Densities.
               1          2          3          4
     1  C    1.106801   0.003655   0.003655   0.003655
     2  H    0.003655  -0.046793   0.001941   0.001941
     3  H    0.003655   0.001941  -0.046793   0.001941
     4  H    0.003655   0.001941   0.001941  -0.046793
 Mulliken charges and spin densities:
               1          2
     1  C   -0.143274   1.117766
     2  H    0.047758  -0.039255
     3  H    0.047758  -0.039255
     4  H    0.047758  -0.039255
 Sum of Mulliken charges =   0.00000   1.00000
 Mulliken charges and spin densities with hydrogens summed into heavy atoms:
               1          2
     1  C    0.000000   1.000000
 Electronic spatial extent (au):  <R**2>=             29.5834
 Charge=              0.0000 electrons
 Dipole moment (field-independent basis, Debye):
    X=              0.0000    Y=             -0.0000    Z=             -0.0000  Tot=              0.0000
 Quadrupole moment (field-independent basis, Debye-Ang):
   XX=             -7.1154   YY=             -7.1154   ZZ=             -8.6732
   XY=             -0.0000   XZ=              0.0000   YZ=             -0.0000
 Traceless Quadrupole moment (field-independent basis, Debye-Ang):
   XX=              0.5193   YY=              0.5193   ZZ=             -1.0385
   XY=             -0.0000   XZ=              0.0000   YZ=             -0.0000
 Octapole moment (field-independent basis, Debye-Ang**2):
  XXX=              0.0000  YYY=              0.7420  ZZZ=              0.0000  XYY=              0.0000
  XXY=             -0.7420  XXZ=              0.0000  XZZ=              0.0000  YZZ=              0.0000
  YYZ=              0.0000  XYZ=              0.0000
 Hexadecapole moment (field-independent basis, Debye-Ang**3):
 XXXX=            -14.3863 YYYY=            -14.3863 ZZZZ=             -9.3833 XXXY=              0.0000
 XXXZ=              0.0000 YYYX=              0.0000 YYYZ=             -0.0000 ZZZX=              0.0000
 ZZZY=             -0.0000 XXYY=             -4.7954 XXZZ=             -4.3097 YYZZ=             -4.3097
 XXYZ=             -0.0000 YYXZ=              0.0000 ZZXY=              0.0000
 N-N= 9.645532176038D+00 E-N=-1.110900902303D+02  KE= 3.948992286474D+01
 Symmetry A1   KE= 3.643148508411D+01
 Symmetry A2   KE=-5.001296798528D-20
 Symmetry B1   KE= 1.926320094273D+00
 Symmetry B2   KE= 1.132117686354D+00
                          Isotropic Fermi Contact Couplings
        Atom                 a.u.       MegaHertz       Gauss      10(-4) cm-1
     1  C(13)              0.12522     140.77551      50.23220      46.95766
     2  H(1)              -0.01309     -58.51665     -20.88019     -19.51905
     3  H(1)              -0.01309     -58.51665     -20.88019     -19.51905
     4  H(1)              -0.01309     -58.51665     -20.88019     -19.51905
 --------------------------------------------------------
       Center         ----  Spin Dipole Couplings  ----
                      3XX-RR        3YY-RR        3ZZ-RR
 --------------------------------------------------------
     1   Atom       -0.550494     -0.550494      1.100988
     2   Atom       -0.075828      0.078028     -0.002199
     3   Atom        0.039564     -0.037364     -0.002199
     4   Atom        0.039564     -0.037364     -0.002199
 --------------------------------------------------------
                        XY            XZ            YZ
 --------------------------------------------------------
     1   Atom        0.000000      0.000000     -0.000000
     2   Atom       -0.000000     -0.000000     -0.000000
     3   Atom       -0.066621      0.000000     -0.000000
     4   Atom        0.066621     -0.000000     -0.000000
 --------------------------------------------------------


 ---------------------------------------------------------------------------------
              Anisotropic Spin Dipole Couplings in Principal Axis System
 ---------------------------------------------------------------------------------

       Atom             a.u.   MegaHertz   Gauss  10(-4) cm-1        Axes

              Baa    -0.5505   -73.871   -26.359   -24.641 -0.0000  1.0000 -0.0000
     1 C(13)  Bbb    -0.5505   -73.871   -26.359   -24.641  1.0000  0.0000  0.0000
              Bcc     1.1010   147.742    52.718    49.281  0.0000  0.0000  1.0000
 
              Baa    -0.0758   -40.458   -14.437   -13.495  1.0000  0.0000 -0.0000
     2 H(1)   Bbb    -0.0022    -1.174    -0.419    -0.391  0.0000  0.0000  1.0000
              Bcc     0.0780    41.632    14.855    13.887 -0.0000  1.0000 -0.0000
 
              Baa    -0.0758   -40.458   -14.437   -13.495  0.5000  0.8660 -0.0000
     3 H(1)   Bbb    -0.0022    -1.174    -0.419    -0.391  0.0000  0.0000  1.0000
              Bcc     0.0780    41.632    14.855    13.887  0.8660 -0.5000  0.0000
 
              Baa    -0.0758   -40.458   -14.437   -13.495 -0.5000  0.8660 -0.0000
     4 H(1)   Bbb    -0.0022    -1.174    -0.419    -0.391  0.0000  0.0000  1.0000
              Bcc     0.0780    41.632    14.855    13.887  0.8660  0.5000 -0.0000
 

 ---------------------------------------------------------------------------------

 No NMR shielding tensors so no spin-rotation constants.
 Leave Link  601 at Fri Aug 23 16:55:52 2019, MaxMem=  2684354560 cpu:         3.1
 (Enter /soft/gaussian/09-e.01/g09/l701.exe)
 Compute integral first derivatives.
 ... and contract with generalized density number  0.
 Leave Link  701 at Fri Aug 23 16:55:52 2019, MaxMem=  2684354560 cpu:         1.6
 (Enter /soft/gaussian/09-e.01/g09/l702.exe)
 L702 exits ... SP integral derivatives will be done elsewhere.
 Leave Link  702 at Fri Aug 23 16:55:52 2019, MaxMem=  2684354560 cpu:         0.2
 (Enter /soft/gaussian/09-e.01/g09/l703.exe)
 Compute integral first derivatives, UseDBF=F ICtDFT=           0.
 Integral derivatives from FoFJK, PRISM(SPDF).
 Calling FoFJK, ICntrl=      2127 FMM=F ISym2X=1 I1Cent= 0 IOpClX= 1 NMat=1 NMatS=1 NMatT=0.
 FoFJK:  IHMeth= 1 ICntrl=    2127 DoSepK=F KAlg= 0 I1Cent=   0 FoldK=F
 IRaf=         0 NMat=   1 IRICut=       1 DoRegI=T DoRafI=F ISym2E= 1.
 FoFCou: FMM=F IPFlag=           0 FMFlag=      100000 FMFlg1=         800
         NFxFlg=           0 DoJE=F BraDBF=F KetDBF=F FulRan=T
         wScrn=  0.000000 ICntrl=    2127 IOpCl=  1 I1Cent=           0 NGrid=           0
         NMat0=    1 NMatS0=      1 NMatT0=    0 NMatD0=    1 NMtDS0=    0 NMtDT0=    0
 Petite list used in FoFCou.
 Leave Link  703 at Fri Aug 23 16:55:53 2019, MaxMem=  2684354560 cpu:         1.4
 (Enter /soft/gaussian/09-e.01/g09/l716.exe)
 Dipole        = 0.00000000D+00-4.44089210D-16-6.90720332D-34
 ***** Axes restored to original set *****
 -------------------------------------------------------------------
 Center     Atomic                   Forces (Hartrees/Bohr)
 Number     Number              X              Y              Z
 -------------------------------------------------------------------
      1        6          -0.000000000    0.000000000   -0.000000000
      2        1           0.000000000    0.000000000    0.005825897
      3        1           0.005045375   -0.000000000   -0.002912948
      4        1          -0.005045375    0.000000000   -0.002912948
 -------------------------------------------------------------------
 Cartesian Forces:  Max     0.005825897 RMS     0.002912948
 -----------------------------------------------------------------------------------------------
                       Internal Coordinate Forces (Hartree/Bohr or radian)
  Cent   Atom   N1       Length/X         N2         Alpha/Y        N3         Beta/Z          J
 -----------------------------------------------------------------------------------------------
      1  C 
      2  H        1   0.005826(     1)
      3  H        1   0.005826(     2)      2  -0.000000(     4)
      4  H        1   0.005826(     3)      2   0.000000(     5)      3   0.000000(     6)     0
 -----------------------------------------------------------------------------------------------
 Internal  Forces:  Max     0.005825897 RMS     0.004119531
 Force constants in Cartesian coordinates: 
                1             2             3             4             5 
      1  0.707368D+00
      2  0.000000D+00  0.967750D-01
      3  0.000000D+00  0.000000D+00  0.707368D+00
      4 -0.114696D+00  0.000000D+00  0.000000D+00  0.764642D-01
      5  0.000000D+00 -0.322583D-01  0.000000D+00  0.000000D+00  0.107528D-01
      6  0.000000D+00  0.000000D+00 -0.356882D+00  0.000000D+00  0.000000D+00
      7 -0.296336D+00  0.000000D+00  0.104870D+00  0.191160D-01  0.000000D+00
      8  0.000000D+00 -0.322583D-01  0.000000D+00  0.000000D+00  0.107528D-01
      9  0.104870D+00  0.000000D+00 -0.175243D+00  0.331100D-01  0.000000D+00
     10 -0.296336D+00  0.000000D+00 -0.104870D+00  0.191160D-01  0.000000D+00
     11  0.000000D+00 -0.322583D-01  0.000000D+00  0.000000D+00  0.107528D-01
     12 -0.104870D+00  0.000000D+00 -0.175243D+00 -0.331100D-01  0.000000D+00
                6             7             8             9            10 
      6  0.356882D+00
      7  0.000000D+00  0.286778D+00
      8  0.000000D+00  0.000000D+00  0.107528D-01
      9  0.000000D+00 -0.121425D+00  0.000000D+00  0.146569D+00
     10  0.000000D+00 -0.955802D-02  0.000000D+00 -0.165550D-01  0.286778D+00
     11  0.000000D+00  0.000000D+00  0.107528D-01  0.000000D+00  0.000000D+00
     12  0.000000D+00  0.165550D-01  0.000000D+00  0.286741D-01  0.121425D+00
               11            12 
     11  0.107528D-01
     12  0.000000D+00  0.146569D+00
 Force constants in internal coordinates: 
                1             2             3             4             5 
      1  0.356882D+00
      2  0.000000D+00  0.356882D+00
      3  0.000000D+00  0.000000D+00  0.356882D+00
      4  0.000000D+00  0.000000D+00  0.000000D+00  0.320000D+00
      5  0.000000D+00  0.000000D+00  0.000000D+00  0.160000D+00  0.320000D+00
      6  0.000000D+00  0.000000D+00  0.000000D+00  0.000000D+00  0.000000D+00
                6 
      6  0.337500D-01
 Leave Link  716 at Fri Aug 23 16:55:53 2019, MaxMem=  2684354560 cpu:         0.3
 (Enter /soft/gaussian/09-e.01/g09/l103.exe)

 GradGradGradGradGradGradGradGradGradGradGradGradGradGradGradGradGradGrad
 Berny optimization.
 Search for a local minimum.
 Step number   1 out of a maximum of   20
 All quantities printed in internal units (Hartrees-Bohrs-Radians)
 Second derivative matrix not updated -- first step.
 The second derivative matrix:
                          R1        R2        A2        R3        A3
           R1           0.35688
           R2           0.00000   0.35688
           A2          -0.00000   0.00000   0.32000
           R3          -0.00000  -0.00000   0.00000   0.35688
           A3           0.00000  -0.00000   0.16000  -0.00000   0.32000
           D3          -0.00000   0.00000  -0.00000   0.00000  -0.00000
                          D3
           D3           0.03375
 ITU=  0
     Eigenvalues ---    0.03375   0.16000   0.35688   0.35688   0.35688
     Eigenvalues ---    0.48000
 RFO step:  Lambda=-2.85085394D-04 EMin= 3.37500000D-02
 Linear search not attempted -- first point.
 Variable       Old X    -DE/DX   Delta X   Delta X   Delta X     New X
                                 (Linear)    (Quad)   (Total)
    R1        2.04572   0.00583   0.00000   0.01631   0.01631   2.06203
    R2        2.04572   0.00583   0.00000   0.01631   0.01631   2.06203
    A2        2.09440  -0.00000   0.00000  -0.00000  -0.00000   2.09440
    R3        2.04572   0.00583   0.00000   0.01631   0.01631   2.06203
    A3        2.09440   0.00000   0.00000   0.00000   0.00000   2.09440
    D3        3.14159   0.00000   0.00000   0.00000   0.00000   3.14159
         Item               Value     Threshold  Converged?
 Maximum Force            0.005826     0.000450     NO 
 RMS     Force            0.004120     0.000300     NO 
 Maximum Displacement     0.016311     0.001800     NO 
 RMS     Displacement     0.011534     0.001200     NO 
 Predicted change in Energy=-1.426566D-04
 Lowest energy point so far.  Saving SCF results.
 GradGradGradGradGradGradGradGradGradGradGradGradGradGradGradGradGradGrad

 Leave Link  103 at Fri Aug 23 16:55:53 2019, MaxMem=  2684354560 cpu:         0.2
 (Enter /soft/gaussian/09-e.01/g09/l202.exe)
 ---------------------------------------------------------------------------------------------------
                            Z-MATRIX (ANGSTROMS AND DEGREES)
   CD    Cent   Atom    N1       Length/X        N2       Alpha/Y        N3        Beta/Z          J
 ---------------------------------------------------------------------------------------------------
      1      1  C 
      2      2  H        1   1.091180(     1)
      3      3  H        1   1.091180(     2)      2  120.000(     4)
      4      4  H        1   1.091180(     3)      2  120.000(     5)      3  180.000(     6)      0
 ---------------------------------------------------------------------------------------------------
                         Z-Matrix orientation:                         
 ---------------------------------------------------------------------
 Center     Atomic      Atomic             Coordinates (Angstroms)
 Number     Number       Type             X           Y           Z
 ---------------------------------------------------------------------
      1          6           0        0.000000    0.000000    0.000000
      2          1           0        0.000000    0.000000    1.091180
      3          1           0        0.944989    0.000000   -0.545590
      4          1           0       -0.944989   -0.000000   -0.545590
 ---------------------------------------------------------------------
                    Distance matrix (angstroms):
                    1          2          3          4
     1  C    0.000000
     2  H    1.091180   0.000000
     3  H    1.091180   1.889979   0.000000
     4  H    1.091180   1.889979   1.889979   0.000000
 Stoichiometry    CH3(2)
 Framework group  D3H[O(C),3C2(H)]
 Deg. of freedom     1
 Full point group                 D3H     NOp  12
 RotChk:  IX=0 Diff= 4.73D-15
 Largest Abelian subgroup         C2V     NOp   4
 Largest concise Abelian subgroup C2      NOp   2
                         Standard orientation:                         
 ---------------------------------------------------------------------
 Center     Atomic      Atomic             Coordinates (Angstroms)
 Number     Number       Type             X           Y           Z
 ---------------------------------------------------------------------
      1          6           0        0.000000    0.000000    0.000000
      2          1           0        0.000000    1.091180    0.000000
      3          1           0        0.944989   -0.545590    0.000000
      4          1           0       -0.944989   -0.545590   -0.000000
 ---------------------------------------------------------------------
 Rotational constants (GHZ):    280.7684481    280.7684481    140.3842241
 Leave Link  202 at Fri Aug 23 16:55:53 2019, MaxMem=  2684354560 cpu:         0.2
 (Enter /soft/gaussian/09-e.01/g09/l301.exe)
 Standard basis: CC-pVDZ (5D, 7F)
 Ernie: Thresh=  0.10000D-02 Tol=  0.10000D-05 Strict=F.
 Ernie:  2 primitive shells out of 37 were deleted.
 There are    15 symmetry adapted cartesian basis functions of A1  symmetry.
 There are     2 symmetry adapted cartesian basis functions of A2  symmetry.
 There are     8 symmetry adapted cartesian basis functions of B1  symmetry.
 There are     5 symmetry adapted cartesian basis functions of B2  symmetry.
 There are    14 symmetry adapted basis functions of A1  symmetry.
 There are     2 symmetry adapted basis functions of A2  symmetry.
 There are     8 symmetry adapted basis functions of B1  symmetry.
 There are     5 symmetry adapted basis functions of B2  symmetry.
    29 basis functions,    54 primitive gaussians,    30 cartesian basis functions
     5 alpha electrons        4 beta electrons
       nuclear repulsion energy         9.5692325748 Hartrees.
 IExCor=  402 DFT=T Ex+Corr=B3LYP ExCW=0 ScaHFX=  0.200000
 ScaDFX=  0.800000  0.720000  1.000000  0.810000 ScalE2=  1.000000  1.000000
 IRadAn=      5 IRanWt=     -1 IRanGd=            0 ICorTp=0 IEmpDi=  4
 NAtoms=    4 NActive=    4 NUniq=    2 SFac= 4.00D+00 NAtFMM=   60 NAOKFM=F Big=F
 Integral buffers will be    131072 words long.
 Raffenetti 2 integral format.
 Two-electron integral symmetry is turned on.
 Leave Link  301 at Fri Aug 23 16:55:53 2019, MaxMem=  2684354560 cpu:         0.5
 (Enter /soft/gaussian/09-e.01/g09/l302.exe)
 NPDir=0 NMtPBC=     1 NCelOv=     1 NCel=       1 NClECP=     1 NCelD=      1
         NCelK=      1 NCelE2=     1 NClLst=     1 CellRange=     0.0.
 One-electron integrals computed using PRISM.
 One-electron integral symmetry used in STVInt
 NBasis=    29 RedAO= T EigKep=  4.83D-02  NBF=    14     2     8     5
 NBsUse=    29 1.00D-06 EigRej= -1.00D+00 NBFU=    14     2     8     5
 Precomputing XC quadrature grid using
 IXCGrd= 4 IRadAn=           5 IRanWt=          -1 IRanGd=           0 AccXCQ= 0.00D+00.
 Generated NRdTot=       0 NPtTot=           0 NUsed=           0 NTot=          32
 NSgBfM=    30    30    30    30    30 MxSgAt=     4 MxSgA2=     4.
 Leave Link  302 at Fri Aug 23 16:55:53 2019, MaxMem=  2684354560 cpu:         1.7
 (Enter /soft/gaussian/09-e.01/g09/l303.exe)
 DipDrv:  MaxL=1.
 Leave Link  303 at Fri Aug 23 16:55:53 2019, MaxMem=  2684354560 cpu:         0.2
 (Enter /soft/gaussian/09-e.01/g09/l401.exe)
 Initial guess from the checkpoint file:  "/blues/gpfs/home/elliott/Packages/PACC/moldriver/rcdriver/rundir/SPC/CH3/WCYWZMWISLQXQU/0/2/UHFFFAOYSA-N/ezvN4wU/RUN/OPTI/A00/Gau-53926.chk"
 B after Tr=     0.000000    0.000000    0.000000
         Rot=    1.000000    0.000000    0.000000    0.000000 Ang=   0.00 deg.
 Guess basis will be translated and rotated to current coordinates.
 JPrj=2 DoOrth=T DoCkMO=T.
 Initial guess orbital symmetries:
 Alpha Orbitals:
       Occupied  (A1') (A1') (E') (E') (A2")
       Virtual   (?A) (?A) (?A) (?A) (?A) (?A) (?A) (?A) (?A) (?A)
                 (?A) (?B) (?B) (?A) (?A) (?A) (?A) (?A) (?A) (?A)
                 (?B) (?B) (?B) (?B)
 Beta  Orbitals:
       Occupied  (A1') (A1') (E') (E')
       Virtual   (?A) (?A) (?A) (?A) (?A) (?A) (?A) (?A) (?A) (?A)
                 (?A) (?B) (?B) (?A) (?A) (?A) (?A) (?A) (?A) (?A)
                 (?B) (?B) (?B) (?B) (?B)
 The electronic state of the initial guess is 2-A2".
 Initial guess <Sx>= 0.0000 <Sy>= 0.0000 <Sz>= 0.5000 <S**2>= 0.7537 S= 0.5018
 Leave Link  401 at Fri Aug 23 16:55:53 2019, MaxMem=  2684354560 cpu:         0.8
 (Enter /soft/gaussian/09-e.01/g09/l502.exe)
 UHF open shell SCF:
 Using DIIS extrapolation, IDIIS=  1040.
 Integral symmetry usage will be decided dynamically.
 Keep R1 and R2 ints in memory in symmetry-blocked form, NReq=968383.
 IVT=        9380 IEndB=        9380 NGot=  2684354560 MDV=  2684290836
 LenX=  2684290836 LenY=  2684289495
 Requested convergence on RMS density matrix=1.00D-08 within  64 cycles.
 Requested convergence on MAX density matrix=1.00D-06.
 Requested convergence on             energy=1.00D-06.
 No special actions if energy rises.
 FoFCou: FMM=F IPFlag=           0 FMFlag=           0 FMFlg1=           0
         NFxFlg=           0 DoJE=F BraDBF=F KetDBF=F FulRan=T
         wScrn=  0.000000 ICntrl=     600 IOpCl=  0 I1Cent=           0 NGrid=           0
         NMat0=    1 NMatS0=    435 NMatT0=    0 NMatD0=    1 NMtDS0=    0 NMtDT0=    0
 Petite list used in FoFCou.

 Cycle   1  Pass 1  IDiag  1:
 E= -39.8390331050303    
 DIIS: error= 7.43D-04 at cycle   1 NSaved=   1.
 NSaved= 1 IEnMin= 1 EnMin= -39.8390331050303     IErMin= 1 ErrMin= 7.43D-04
 ErrMax= 7.43D-04  0.00D+00 EMaxC= 1.00D-01 BMatC= 9.41D-05 BMatP= 9.41D-05
 IDIUse=3 WtCom= 9.93D-01 WtEn= 7.43D-03
 Coeff-Com:  0.100D+01
 Coeff-En:   0.100D+01
 Coeff:      0.100D+01
 Gap=     0.802 Goal=   None    Shift=    0.000
 Gap=     0.546 Goal=   None    Shift=    0.000
 RMSDP=2.47D-04 MaxDP=2.52D-03              OVMax= 2.55D-03

 Cycle   2  Pass 1  IDiag  1:
 E= -39.8390597852732     Delta-E=       -0.000026680243 Rises=F Damp=F
 DIIS: error= 4.29D-04 at cycle   2 NSaved=   2.
 NSaved= 2 IEnMin= 2 EnMin= -39.8390597852732     IErMin= 2 ErrMin= 4.29D-04
 ErrMax= 4.29D-04  0.00D+00 EMaxC= 1.00D-01 BMatC= 1.47D-05 BMatP= 9.41D-05
 IDIUse=3 WtCom= 9.96D-01 WtEn= 4.29D-03
 Coeff-Com:  0.203D+00 0.797D+00
 Coeff-En:   0.000D+00 0.100D+01
 Coeff:      0.202D+00 0.798D+00
 Gap=     0.303 Goal=   None    Shift=    0.000
 Gap=     0.346 Goal=   None    Shift=    0.000
 RMSDP=9.40D-05 MaxDP=1.61D-03 DE=-2.67D-05 OVMax= 1.31D-03

 Cycle   3  Pass 1  IDiag  1:
 E= -39.8390627214796     Delta-E=       -0.000002936206 Rises=F Damp=F
 DIIS: error= 2.80D-04 at cycle   3 NSaved=   3.
 NSaved= 3 IEnMin= 3 EnMin= -39.8390627214796     IErMin= 3 ErrMin= 2.80D-04
 ErrMax= 2.80D-04  0.00D+00 EMaxC= 1.00D-01 BMatC= 5.72D-06 BMatP= 1.47D-05
 IDIUse=3 WtCom= 9.97D-01 WtEn= 2.80D-03
 Coeff-Com:  0.858D-02 0.383D+00 0.608D+00
 Coeff-En:   0.000D+00 0.235D+00 0.765D+00
 Coeff:      0.856D-02 0.383D+00 0.609D+00
 Gap=     0.303 Goal=   None    Shift=    0.000
 Gap=     0.346 Goal=   None    Shift=    0.000
 RMSDP=3.28D-05 MaxDP=4.39D-04 DE=-2.94D-06 OVMax= 4.32D-04

 Cycle   4  Pass 1  IDiag  1:
 E= -39.8390643000071     Delta-E=       -0.000001578528 Rises=F Damp=F
 DIIS: error= 7.48D-06 at cycle   4 NSaved=   4.
 NSaved= 4 IEnMin= 4 EnMin= -39.8390643000071     IErMin= 4 ErrMin= 7.48D-06
 ErrMax= 7.48D-06  0.00D+00 EMaxC= 1.00D-01 BMatC= 2.91D-09 BMatP= 5.72D-06
 IDIUse=1 WtCom= 1.00D+00 WtEn= 0.00D+00
 Coeff-Com: -0.329D-02-0.453D-02-0.103D-01 0.102D+01
 Coeff:     -0.329D-02-0.453D-02-0.103D-01 0.102D+01
 Gap=     0.303 Goal=   None    Shift=    0.000
 Gap=     0.346 Goal=   None    Shift=    0.000
 RMSDP=1.63D-06 MaxDP=3.09D-05 DE=-1.58D-06 OVMax= 2.48D-05

 Cycle   5  Pass 1  IDiag  1:
 E= -39.8390643018712     Delta-E=       -0.000000001864 Rises=F Damp=F
 DIIS: error= 1.29D-06 at cycle   5 NSaved=   5.
 NSaved= 5 IEnMin= 5 EnMin= -39.8390643018712     IErMin= 5 ErrMin= 1.29D-06
 ErrMax= 1.29D-06  0.00D+00 EMaxC= 1.00D-01 BMatC= 1.59D-10 BMatP= 2.91D-09
 IDIUse=1 WtCom= 1.00D+00 WtEn= 0.00D+00
 Coeff-Com:  0.876D-03-0.405D-02-0.540D-02-0.296D+00 0.130D+01
 Coeff:      0.876D-03-0.405D-02-0.540D-02-0.296D+00 0.130D+01
 Gap=     0.303 Goal=   None    Shift=    0.000
 Gap=     0.346 Goal=   None    Shift=    0.000
 RMSDP=4.90D-07 MaxDP=9.24D-06 DE=-1.86D-09 OVMax= 7.48D-06

 Cycle   6  Pass 1  IDiag  1:
 E= -39.8390643020018     Delta-E=       -0.000000000131 Rises=F Damp=F
 DIIS: error= 2.70D-07 at cycle   6 NSaved=   6.
 NSaved= 6 IEnMin= 6 EnMin= -39.8390643020018     IErMin= 6 ErrMin= 2.70D-07
 ErrMax= 2.70D-07  0.00D+00 EMaxC= 1.00D-01 BMatC= 5.08D-12 BMatP= 1.59D-10
 IDIUse=1 WtCom= 1.00D+00 WtEn= 0.00D+00
 Coeff-Com: -0.213D-03 0.162D-02 0.222D-02 0.748D-01-0.452D+00 0.137D+01
 Coeff:     -0.213D-03 0.162D-02 0.222D-02 0.748D-01-0.452D+00 0.137D+01
 Gap=     0.303 Goal=   None    Shift=    0.000
 Gap=     0.346 Goal=   None    Shift=    0.000
 RMSDP=9.79D-08 MaxDP=9.87D-07 DE=-1.31D-10 OVMax= 1.38D-06

 Cycle   7  Pass 1  IDiag  1:
 E= -39.8390643020063     Delta-E=       -0.000000000004 Rises=F Damp=F
 DIIS: error= 2.21D-08 at cycle   7 NSaved=   7.
 NSaved= 7 IEnMin= 7 EnMin= -39.8390643020063     IErMin= 7 ErrMin= 2.21D-08
 ErrMax= 2.21D-08  0.00D+00 EMaxC= 1.00D-01 BMatC= 3.70D-14 BMatP= 5.08D-12
 IDIUse=1 WtCom= 1.00D+00 WtEn= 0.00D+00
 Coeff-Com:  0.201D-04-0.203D-03-0.255D-03-0.765D-02 0.526D-01-0.229D+00
 Coeff-Com:  0.118D+01
 Coeff:      0.201D-04-0.203D-03-0.255D-03-0.765D-02 0.526D-01-0.229D+00
 Coeff:      0.118D+01
 Gap=     0.303 Goal=   None    Shift=    0.000
 Gap=     0.346 Goal=   None    Shift=    0.000
 RMSDP=8.63D-09 MaxDP=6.94D-08 DE=-4.49D-12 OVMax= 1.10D-07

 SCF Done:  E(UB3LYP) =  -39.8390643020     A.U. after    7 cycles
            NFock=  7  Conv=0.86D-08     -V/T= 2.0097
 <Sx>= 0.0000 <Sy>= 0.0000 <Sz>= 0.5000 <S**2>= 0.7537 S= 0.5019
 <L.S>= 0.000000000000E+00
 KE= 3.945530611314D+01 PE=-1.109155589580D+02 EE= 2.205195596808D+01
 Annihilation of the first spin contaminant:
 S**2 before annihilation     0.7537,   after     0.7500
 Leave Link  502 at Fri Aug 23 16:55:53 2019, MaxMem=  2684354560 cpu:         2.3
 (Enter /soft/gaussian/09-e.01/g09/l508.exe)
 QCSCF skips out because SCF is already converged.
 Leave Link  508 at Fri Aug 23 16:55:53 2019, MaxMem=  2684354560 cpu:         0.0
 (Enter /soft/gaussian/09-e.01/g09/l701.exe)
 Compute integral first derivatives.
 ... and contract with generalized density number  0.
 Leave Link  701 at Fri Aug 23 16:55:53 2019, MaxMem=  2684354560 cpu:         1.7
 (Enter /soft/gaussian/09-e.01/g09/l702.exe)
 L702 exits ... SP integral derivatives will be done elsewhere.
 Leave Link  702 at Fri Aug 23 16:55:54 2019, MaxMem=  2684354560 cpu:         0.2
 (Enter /soft/gaussian/09-e.01/g09/l703.exe)
 Compute integral first derivatives, UseDBF=F ICtDFT=           0.
 Integral derivatives from FoFJK, PRISM(SPDF).
 Calling FoFJK, ICntrl=      2127 FMM=F ISym2X=1 I1Cent= 0 IOpClX= 1 NMat=1 NMatS=1 NMatT=0.
 FoFJK:  IHMeth= 1 ICntrl=    2127 DoSepK=F KAlg= 0 I1Cent=   0 FoldK=F
 IRaf=         0 NMat=   1 IRICut=       1 DoRegI=T DoRafI=F ISym2E= 1.
 FoFCou: FMM=F IPFlag=           0 FMFlag=      100000 FMFlg1=         800
         NFxFlg=           0 DoJE=F BraDBF=F KetDBF=F FulRan=T
         wScrn=  0.000000 ICntrl=    2127 IOpCl=  1 I1Cent=           0 NGrid=           0
         NMat0=    1 NMatS0=      1 NMatT0=    0 NMatD0=    1 NMtDS0=    0 NMtDT0=    0
 Petite list used in FoFCou.
 Leave Link  703 at Fri Aug 23 16:55:54 2019, MaxMem=  2684354560 cpu:         1.4
 (Enter /soft/gaussian/09-e.01/g09/l716.exe)
 Dipole        = 0.00000000D+00-4.44089210D-16 3.14819023D-34
 ***** Axes restored to original set *****
 -------------------------------------------------------------------
 Center     Atomic                   Forces (Hartrees/Bohr)
 Number     Number              X              Y              Z
 -------------------------------------------------------------------
      1        6          -0.000000000   -0.000000000    0.000000000
      2        1           0.000000000    0.000000000   -0.000290989
      3        1          -0.000252004   -0.000000000    0.000145495
      4        1           0.000252004    0.000000000    0.000145495
 -------------------------------------------------------------------
 Cartesian Forces:  Max     0.000290989 RMS     0.000145495
 -----------------------------------------------------------------------------------------------
                       Internal Coordinate Forces (Hartree/Bohr or radian)
  Cent   Atom   N1       Length/X         N2         Alpha/Y        N3         Beta/Z          J
 -----------------------------------------------------------------------------------------------
      1  C 
      2  H        1  -0.000291(     1)
      3  H        1  -0.000291(     2)      2  -0.000000(     4)
      4  H        1  -0.000291(     3)      2  -0.000000(     5)      3   0.000000(     6)     0
 -----------------------------------------------------------------------------------------------
 Internal  Forces:  Max     0.000290989 RMS     0.000205760
 Leave Link  716 at Fri Aug 23 16:55:54 2019, MaxMem=  2684354560 cpu:         0.3
 (Enter /soft/gaussian/09-e.01/g09/l103.exe)

 GradGradGradGradGradGradGradGradGradGradGradGradGradGradGradGradGradGrad
 Berny optimization.
 Search for a local minimum.
 Step number   2 out of a maximum of   20
 All quantities printed in internal units (Hartrees-Bohrs-Radians)
 Update second derivatives using D2CorN and points    1    2
 DE= -1.34D-04 DEPred=-1.43D-04 R= 9.41D-01
 TightC=F SS=  1.41D+00  RLast= 2.83D-02 DXNew= 5.0454D-01 8.4757D-02
 Trust test= 9.41D-01 RLast= 2.83D-02 DXMaxT set to 3.00D-01
 The second derivative matrix:
                          R1        R2        A2        R3        A3
           R1           0.36292
           R2           0.00604   0.36292
           A2           0.00000   0.00000   0.32000
           R3           0.00604   0.00604   0.00000   0.36292
           A3           0.00000   0.00000   0.16000   0.00000   0.32000
           D3           0.00000   0.00000  -0.00000   0.00000  -0.00000
                          D3
           D3           0.03375
 ITU=  1  0
     Eigenvalues ---    0.03375   0.16000   0.35688   0.35688   0.37501
     Eigenvalues ---    0.48000
 RFO step:  Lambda= 0.00000000D+00 EMin= 3.37500000D-02
 Quartic linear search produced a step of -0.04871.
 Variable       Old X    -DE/DX   Delta X   Delta X   Delta X     New X
                                 (Linear)    (Quad)   (Total)
    R1        2.06203  -0.00029  -0.00079  -0.00000  -0.00079   2.06124
    R2        2.06203  -0.00029  -0.00079   0.00000  -0.00079   2.06124
    A2        2.09440  -0.00000   0.00000  -0.00000  -0.00000   2.09440
    R3        2.06203  -0.00029  -0.00079   0.00000  -0.00079   2.06124
    A3        2.09440  -0.00000  -0.00000   0.00000   0.00000   2.09440
    D3        3.14159   0.00000   0.00000   0.00000   0.00000   3.14159
         Item               Value     Threshold  Converged?
 Maximum Force            0.000291     0.000450     YES
 RMS     Force            0.000206     0.000300     YES
 Maximum Displacement     0.000795     0.001800     YES
 RMS     Displacement     0.000562     0.001200     YES
 Predicted change in Energy=-3.384967D-07
 Optimization completed.
    -- Stationary point found.
                       ----------------------------
                       !   Optimized Parameters   !
                       ! (Angstroms and Degrees)  !
 ----------------------                            ----------------------
 !      Name          Value   Derivative information (Atomic Units)     !
 ------------------------------------------------------------------------
 !       R1          1.0912   -DE/DX =   -0.0003                        !
 !       R2          1.0912   -DE/DX =   -0.0003                        !
 !       A2        120.0      -DE/DX =    0.0                           !
 !       R3          1.0912   -DE/DX =   -0.0003                        !
 !       A3        120.0      -DE/DX =    0.0                           !
 !       D3        180.0      -DE/DX =    0.0                           !
 ------------------------------------------------------------------------
 Lowest energy point so far.  Saving SCF results.
 GradGradGradGradGradGradGradGradGradGradGradGradGradGradGradGradGradGrad

 Largest change from initial coordinates is atom    3       0.009 Angstoms.
 Leave Link  103 at Fri Aug 23 16:55:54 2019, MaxMem=  2684354560 cpu:         0.2
 (Enter /soft/gaussian/09-e.01/g09/l202.exe)
 ---------------------------------------------------------------------------------------------------
                            Z-MATRIX (ANGSTROMS AND DEGREES)
   CD    Cent   Atom    N1       Length/X        N2       Alpha/Y        N3        Beta/Z          J
 ---------------------------------------------------------------------------------------------------
      1      1  C 
      2      2  H        1   1.091180(     1)
      3      3  H        1   1.091180(     2)      2  120.000(     4)
      4      4  H        1   1.091180(     3)      2  120.000(     5)      3  180.000(     6)      0
 ---------------------------------------------------------------------------------------------------
                         Z-Matrix orientation:                         
 ---------------------------------------------------------------------
 Center     Atomic      Atomic             Coordinates (Angstroms)
 Number     Number       Type             X           Y           Z
 ---------------------------------------------------------------------
      1          6           0        0.000000    0.000000    0.000000
      2          1           0        0.000000    0.000000    1.091180
      3          1           0        0.944989    0.000000   -0.545590
      4          1           0       -0.944989   -0.000000   -0.545590
 ---------------------------------------------------------------------
                    Distance matrix (angstroms):
                    1          2          3          4
     1  C    0.000000
     2  H    1.091180   0.000000
     3  H    1.091180   1.889979   0.000000
     4  H    1.091180   1.889979   1.889979   0.000000
 Stoichiometry    CH3(2)
 Framework group  D3H[O(C),3C2(H)]
 Deg. of freedom     1
 Full point group                 D3H     NOp  12
 RotChk:  IX=0 Diff= 4.05D-33
 Largest Abelian subgroup         C2V     NOp   4
 Largest concise Abelian subgroup C2      NOp   2
                         Standard orientation:                         
 ---------------------------------------------------------------------
 Center     Atomic      Atomic             Coordinates (Angstroms)
 Number     Number       Type             X           Y           Z
 ---------------------------------------------------------------------
      1          6           0        0.000000    0.000000    0.000000
      2          1           0        0.000000    1.091180    0.000000
      3          1           0        0.944989   -0.545590    0.000000
      4          1           0       -0.944989   -0.545590   -0.000000
 ---------------------------------------------------------------------
 Rotational constants (GHZ):    280.7684481    280.7684481    140.3842241
 Leave Link  202 at Fri Aug 23 16:55:54 2019, MaxMem=  2684354560 cpu:         0.1
 (Enter /soft/gaussian/09-e.01/g09/l601.exe)
 Copying SCF densities to generalized density rwf, IOpCl= 1 IROHF=0.

 **********************************************************************

            Population analysis using the SCF density.

 **********************************************************************

 Orbital symmetries:
 Alpha Orbitals:
       Occupied  (A1') (A1') (E') (E') (A2")
       Virtual   (A1') (E') (E') (E') (E') (A2") (A1') (E') (E')
                 (A1') (E") (E") (A2') (E') (E') (A1') (A2") (E")
                 (E") (E') (E') (A1') (E') (E')
 Beta  Orbitals:
       Occupied  (A1') (A1') (E') (E')
       Virtual   (A2") (A1') (E') (E') (E') (E') (A1') (A2") (E')
                 (E') (A1') (E") (E") (A2') (E') (E') (A1') (A2")
                 (E") (E") (E') (E') (A1') (E') (E')
 The electronic state is 2-A2".
 Alpha  occ. eigenvalues --  -10.19891  -0.68171  -0.41592  -0.41592  -0.22974
 Alpha virt. eigenvalues --    0.07289   0.14168   0.14168   0.43607   0.43607
 Alpha virt. eigenvalues --    0.47346   0.48766   0.65499   0.65499   0.85497
 Alpha virt. eigenvalues --    0.96112   0.96112   1.35610   1.45125   1.45125
 Alpha virt. eigenvalues --    1.48616   1.59546   1.83830   1.83830   2.08030
 Alpha virt. eigenvalues --    2.08030   2.44421   2.49293   2.49293
  Beta  occ. eigenvalues --  -10.18464  -0.64093  -0.40587  -0.40587
  Beta virt. eigenvalues --   -0.05988   0.08357   0.14582   0.14582   0.43906
  Beta virt. eigenvalues --    0.43906   0.51578   0.54796   0.66260   0.66260
  Beta virt. eigenvalues --    0.88359   0.99884   0.99884   1.35250   1.45452
  Beta virt. eigenvalues --    1.45452   1.55131   1.60709   1.86866   1.86866
  Beta virt. eigenvalues --    2.08331   2.08331   2.44989   2.50051   2.50051
          Condensed to atoms (all electrons):
               1          2          3          4
     1  C    4.927014   0.408169   0.408169   0.408169
     2  H    0.408169   0.599825  -0.029251  -0.029251
     3  H    0.408169  -0.029251   0.599825  -0.029251
     4  H    0.408169  -0.029251  -0.029251   0.599825
          Atomic-Atomic Spin Densities.
               1          2          3          4
     1  C    1.109411   0.003363   0.003363   0.003363
     2  H    0.003363  -0.047087   0.001945   0.001945
     3  H    0.003363   0.001945  -0.047087   0.001945
     4  H    0.003363   0.001945   0.001945  -0.047087
 Mulliken charges and spin densities:
               1          2
     1  C   -0.151522   1.119501
     2  H    0.050507  -0.039834
     3  H    0.050507  -0.039834
     4  H    0.050507  -0.039834
 Sum of Mulliken charges =   0.00000   1.00000
 Mulliken charges and spin densities with hydrogens summed into heavy atoms:
               1          2
     1  C    0.000000   1.000000
 Electronic spatial extent (au):  <R**2>=             29.8177
 Charge=              0.0000 electrons
 Dipole moment (field-independent basis, Debye):
    X=             -0.0000    Y=             -0.0000    Z=              0.0000  Tot=              0.0000
 Quadrupole moment (field-independent basis, Debye-Ang):
   XX=             -7.1227   YY=             -7.1227   ZZ=             -8.7034
   XY=             -0.0000   XZ=             -0.0000   YZ=             -0.0000
 Traceless Quadrupole moment (field-independent basis, Debye-Ang):
   XX=              0.5269   YY=              0.5269   ZZ=             -1.0538
   XY=             -0.0000   XZ=             -0.0000   YZ=             -0.0000
 Octapole moment (field-independent basis, Debye-Ang**2):
  XXX=             -0.0000  YYY=              0.7683  ZZZ=             -0.0000  XYY=              0.0000
  XXY=             -0.7683  XXZ=             -0.0000  XZZ=              0.0000  YZZ=              0.0000
  YYZ=             -0.0000  XYZ=              0.0000
 Hexadecapole moment (field-independent basis, Debye-Ang**3):
 XXXX=            -14.5518 YYYY=            -14.5518 ZZZZ=             -9.4307 XXXY=              0.0000
 XXXZ=             -0.0000 YYYX=              0.0000 YYYZ=              0.0000 ZZZX=             -0.0000
 ZZZY=              0.0000 XXYY=             -4.8506 XXZZ=             -4.3570 YYZZ=             -4.3570
 XXYZ=             -0.0000 YYXZ=             -0.0000 ZZXY=              0.0000
 N-N= 9.569232574762D+00 E-N=-1.109155590415D+02  KE= 3.945530611314D+01
 Symmetry A1   KE= 3.640914725066D+01
 Symmetry A2   KE=-9.995842585078D-20
 Symmetry B1   KE= 1.913334760007D+00
 Symmetry B2   KE= 1.132824102480D+00
                          Isotropic Fermi Contact Couplings
        Atom                 a.u.       MegaHertz       Gauss      10(-4) cm-1
     1  C(13)              0.12707     142.84698      50.97135      47.64863
     2  H(1)              -0.01319     -58.97285     -21.04298     -19.67123
     3  H(1)              -0.01319     -58.97285     -21.04298     -19.67123
     4  H(1)              -0.01319     -58.97285     -21.04298     -19.67123
 --------------------------------------------------------
       Center         ----  Spin Dipole Couplings  ----
                      3XX-RR        3YY-RR        3ZZ-RR
 --------------------------------------------------------
     1   Atom       -0.550861     -0.550861      1.101722
     2   Atom       -0.074708      0.077621     -0.002912
     3   Atom        0.039538     -0.036626     -0.002912
     4   Atom        0.039538     -0.036626     -0.002912
 --------------------------------------------------------
                        XY            XZ            YZ
 --------------------------------------------------------
     1   Atom        0.000000     -0.000000      0.000000
     2   Atom        0.000000     -0.000000     -0.000000
     3   Atom       -0.065960     -0.000000      0.000000
     4   Atom        0.065960     -0.000000     -0.000000
 --------------------------------------------------------


 ---------------------------------------------------------------------------------
              Anisotropic Spin Dipole Couplings in Principal Axis System
 ---------------------------------------------------------------------------------

       Atom             a.u.   MegaHertz   Gauss  10(-4) cm-1        Axes

              Baa    -0.5509   -73.920   -26.377   -24.657 -0.3986  0.9171 -0.0000
     1 C(13)  Bbb    -0.5509   -73.920   -26.377   -24.657  0.9171  0.3986  0.0000
              Bcc     1.1017   147.841    52.753    49.314  0.0000  0.0000  1.0000
 
              Baa    -0.0747   -39.861   -14.223   -13.296  1.0000 -0.0000 -0.0000
     2 H(1)   Bbb    -0.0029    -1.554    -0.554    -0.518  0.0000  0.0000  1.0000
              Bcc     0.0776    41.415    14.778    13.814 -0.0000  1.0000 -0.0000
 
              Baa    -0.0747   -39.861   -14.223   -13.296  0.5000  0.8660  0.0000
     3 H(1)   Bbb    -0.0029    -1.554    -0.554    -0.518  0.0000  0.0000  1.0000
              Bcc     0.0776    41.415    14.778    13.814  0.8660 -0.5000  0.0000
 
              Baa    -0.0747   -39.861   -14.223   -13.296 -0.5000  0.8660  0.0000
     4 H(1)   Bbb    -0.0029    -1.554    -0.554    -0.518  0.0000  0.0000  1.0000
              Bcc     0.0776    41.415    14.778    13.814  0.8660  0.5000 -0.0000
 

 ---------------------------------------------------------------------------------

 No NMR shielding tensors so no spin-rotation constants.
 Leave Link  601 at Fri Aug 23 16:55:54 2019, MaxMem=  2684354560 cpu:         3.1
 (Enter /soft/gaussian/09-e.01/g09/l9999.exe)
 1\1\GINC-BLUESLOGIN2\POpt\UB3LYP\CC-pVDZ\C1H3(2)\ELLIOTT\23-Aug-2019\1
 \\#P b3lyp/cc-pvdz # SCF=(xqc) # POpt=() # int=ultrafine\\comment:\\0,
 2\C\H,1,R1\H,1,R2,2,A2\H,1,R3,2,A3,3,D3,0\\R1=1.09117962\R2=1.09117962
 \A2=120.\R3=1.09117962\A3=120.\D3=180.\\Version=ES64L-G09RevE.01\State
 =2-A2"\HF=-39.8390643\S2=0.75371\S2-1=0.\S2A=0.750007\RMSD=8.633e-09\R
 MSF=1.455e-04\Dipole=0.,0.,0.\Quadrupole=0.3917532,-0.7835064,0.391753
 2,0.,0.,0.\PG=D03H [O(C1),3C2(H1)]\\@


 I WANT TO KNOW HOW GOD CREATED THE WORLD.  I AM NOT INTERESTED IN
 THIS OR THAT PHENOMENON, IN THE SPECTRUM OF THIS OR THAT ELEMENT.
 I WANT TO KNOW HIS THOUGHTS, THE REST ARE DETAILS.
     -- ALBERT EINSTEIN
 Job cpu time:       0 days  0 hours  0 minutes 28.7 seconds.
 File lengths (MBytes):  RWF=     72 Int=      0 D2E=      0 Chk=      2 Scr=      2
 Normal termination of Gaussian 09 at Fri Aug 23 16:55:54 2019.
