[Molden Format]
[Molpro variables]
_NUMVAR=  691.0000000000000    
_EV2006= 0.3674930886769165E-01
_EV= 0.3674932534394180E-01
_KJOULE= 0.3808798324128737E-03
_KJOULE/MOL= 0.3808798324128737E-03
_CM= 0.4556335267302901E-05
_CM-1= 0.4556335267302901E-05
_KCAL= 0.1593601117815568E-02
_KCAL/MOL= 0.1593601117815568E-02
_KELVIN2006= 0.3166828861084835E-05
_KELVIN= 0.3166814820820034E-05
_HERTZ2006= 0.1519829850815779E-15
_HERTZ= 0.1519829846011223E-15
_HZ2006= 0.1519829850815779E-15
_HZ= 0.1519829846011223E-15
_TOA2006= 0.5291772490000000    
_TOA= 0.5291772090000000    
_TOANG2006= 0.5291772490000000    
_TOANG= 0.5291772090000000    
_TORAD= 0.1745329251994330E-01
_TOCM=  219474.6306700000    
_TODEBYE=  2.541580000000000    
_TOEV2006=  27.21139610000000    
_TOEV=  27.21138390000000    
_TOHERTZ2006=  6579683899900000.    
_TOHERTZ=  6579683920700000.    
_TOHZ2006=  6579683899900000.    
_TOHZ=  6579683920700000.    
_TOK2006=  315773.3000000000    
_TOK=  315774.7000000000    
_TOKCAL=  627.5096000000000    
_TOKELVIN2006=  315773.3000000000    
_TOKELVIN=  315774.7000000000    
_TOKJ=  2625.500000000000    
_TOKJOULE=  2625.500000000000    
_ANG2006=  1.889725988578923    
_ANG=  1.889726131421507    
_ANGSTROM2006=  1.889725988578923    
_ANGSTROM=  1.889726131421507    
_IGNORE_UNDEF=  2.000000000000000    
_STRICTCHECK=  0.000000000000000    
_SEW_ONEEL=  0.000000000000000    
_CPPDONE=FALSE
_DKROLL_DONE=  0.000000000000000    
_FOCKDONE=  0.000000000000000    
_GRADONE=FALSE
_HESSDONE=FALSE
_INTDONE=TRUE
_SCFDONE=FALSE
_MODUL_CUDA=FALSE
_MODUL_SLATER=FALSE
_MODUL_MRCC=FALSE
_MRCC_EXEC=
_FITC_AO_SAVED=FALSE
_FITC_MO_SAVED=FALSE
_SHARED_FS=TRUE
_LSTYP=SEWARD
_INTYP=INTS
_GEOMTYP=ZMAT
_GRADTYP=ALASKA
_DIRECT=FALSE
_SYNCM=  0.000000000000000    
_BASIS=CC-PVTZ
_ZORIENT=  1.000000000000000    
_NELEC=  16.00000000000000    
_SPIN=  0.000000000000000    
!SPIN=  0.000000000000000    
_QSDSTEP=  0.000000000000000    
_QSDIRC=  0.000000000000000    
_PROGRAM=RS2C
_CPUSTEP= 0.7100000000000000    
_SYSSTEP= 0.1100000000000000    
_WALLSTEP=  1.790000000000000    
!DFMP2=  0.000000000000000    
!DFSCF=  0.000000000000000    
!SCSGRD=  0.000000000000000    
_BASINP=  610.0000000000000    
_CPUTOT=  5.940000000000000    
_DFTEXFAC=  1.000000000000000    
_DMX=  0.000000000000000    
_DMY=  0.000000000000000    
_DMZ=  0.000000000000000    
_EMP2= -78.30163620538977    
_ENERGR= -78.01503349670371    
_ENERGU= -78.28511773337945    
_ENERGY= -78.30163620538977    
_ENUC=  31.50316650466779    
_GRADEXFAC=  9999.000000000000    
_GRADMETHOD=FALSE
!GRID_FREEZE= -1.000000000000000    
_ITERATIONS=  7.000000000000000    
_LASTNELEC=  4.000000000000000    
_LASTSPIN=  0.000000000000000    
_LASTSYM=  1.000000000000000    
_MPP_PROG=  1.000000000000000    
_NPROC_MPP=  4.000000000000000    
_NPROC_SMP=  1.000000000000000    
_NUMSTEP=  0.000000000000000    
_ORBITAL=  2143.200000000000    
_PI=  3.141592653589793    
!MCACT=  4.000000000000000    
!MCCLOSED=  6.000000000000000    
!MCFREEZE=  0.000000000000000    
!MCMS2=  0.000000000000000    
!MCNEL=  4.000000000000000    
!MCNSTSYM=  1.000000000000000    
!MCSTATE=  1.000000000000000    
!MCSYM=  1.000000000000000    
!MCWEIGHT=  1.000000000000000    
_SEIG_MIN= 0.8655497381441973E-03
_SEWPROP=TRUE
_STATUS=  1.000000000000000    
_SYSTOT= 0.7600000000000000    
_VERSION=  2010001.000000000    
_WALLTOT=  14.94000000000000    
_DATE=06-Sep-19
_LASTORB=MCSCF
_MACHINE=Linux-2.6.34-12-desktop/tt109(x86_64) 64 bit mpp version
_OUTPUT=/home/carlo/qm/combustion/barrierless/c2h4_c2h3_h/dist_1.8/molpro.xml
_PGROUP=C1
_TIME=02:12:42
_LIBMOL=/programs/molpro2010p/bin/../lib/
!SURFREC=  0.000000000000000    
!POLYREC=  0.000000000000000    
!DIPREC=  0.000000000000000    
!VSCFREC=  0.000000000000000    
!VCIREC=  0.000000000000000    
!PVCIREC=  0.000000000000000    
!VMP2REC=  0.000000000000000    
!VMCSCFREC=  0.000000000000000    
!GAREC=  0.000000000000000    
!SCFORB=  21002.00000000000    
!MCORB=  21432.00000000000    
!CIOCC=  10.00000000000000    
!CICORE=  2.000000000000000    
!CICLOS=  6.000000000000000    
!CIISTSYM=  1.000000000000000    
!CIISTMS2=  0.000000000000000    
!CIISTNEL=  12.00000000000000    
!NEWMOL=  0.000000000000000    
!NEWSYM=  0.000000000000000    
_SLFILES=slscratch
_NGSSTO=  9.000000000000000    
_SIN=SIN
_COS=COS
_TAN=TAN
_ACOS=ACOS
_ASIN=ASIN
_ATAN=ATAN
_COSH=COSH
_SINH=SINH
_TANH=TANH
_ABS=ABS
_MOD=MOD
_ERF=ERF
_REFC=REFC
_ERFC=ERFC
_HYPOT=HYPOT
_J0=J0
_J1=J1
_JN=JN
_GAMMA=GAMMA
_LGAMMA=LGAMMA
_Y0=Y0
_Y1=Y1
_YN=YN
_EXP=EXP
_LOG=LOG
_LOG10=LOG10
_SQRT=SQRT
_INT=INT
_NINT=NINT
_MAX=MAX
_MIN=MIN
_COSMO=  0.000000000000000    
_COSMOIT=  0.000000000000000    
_COSMOES=  0.000000000000000    
_COSMOEDS=  0.000000000000000    
_COSMOEC=  0.000000000000000    
_COSMOEDCORR=  0.000000000000000    
_FEPSI=  1.000000000000000    
_SL_IsMM=  0.000000000000000    
_SL_NSYM=  0.000000000000000    
_SL_System_BitSw=  0.000000000000000    
_SL_Unique_atoms=  0.000000000000000    
_SL_GRAD=  0.000000000000000    
_SL_MAXUPD_Hess=  5.000000000000000    
_SL_N_PRINT_COD=  5.000000000000000    
_SL_PRINT_CODES=  0.000000000000000    
_SL_BasType=  0.000000000000000    
_SL_Energy_Pred=  0.000000000000000    
_SL_New_Coords=  0.000000000000000    
_SL_Total_Nuclea=  0.000000000000000    
_SL_Highest_Mltp=  0.000000000000000    
_SL_Ref_Geom=  0.000000000000000    
!LATTICE= -1.000000000000000    
!NEWLATTICE=  0.000000000000000    
!LATGRAD_VAR=FALSE
!SEW_LATTICE=  1.000000000000000    
!LOCAL=  0.000000000000000    
!SAVEDOM= -1.000000000000000    
!RESTDOM= -1.000000000000000    
!SAVEDOM_HF= -1.000000000000000    
!RESTDOM_HF= -1.000000000000000    
!HESSREC=  0.000000000000000    
!FREQREC=  0.000000000000000    
!NMODREC=  0.000000000000000    
!GTASKS=  0.000000000000000    
!HTASKS=  0.000000000000000    
!THRCHG= 0.1000000000000000    
!DEBUG= -1.000000000000000    
!CFIT_CPHF=  0.000000000000000    
!RDOMAUX_CPHF=  3.000000000000000    
!THRAO_CPHF= 0.1000000000000000E-09
!THRMO_CPHF= 0.1000000000000000E-08
!THROV_CPHF= 0.1000000000000000E-11
!THRSW_CPHF= 0.1000000000000000E-09
!THRPROD_CPHF= 0.1000000000000000E-08
!THRAOPR_CPHF= 0.1000000000000000E-11
!CFIT_SCFGRD=  0.000000000000000    
!RDOMAUX_SCFGRD=  5.000000000000000    
!THRAO_SCFGRD= 0.1000000000000000E-09
!THRMO_SCFGRD= 0.1000000000000000E-08
!THROV_SCFGRD= 0.1000000000000000E-11
!THRSW_SCFGRD= 0.1000000000000000E-09
!THRPROD_SCFGRD= 0.1000000000000000E-08
!THRAOPR_SCFGRD= 0.1000000000000000E-11
!LOCFIT_SCF=  0.000000000000000    
!LOCFIT_MP2= -1.000000000000000    
_RIDOM=  0.000000000000000    
!CC2_METHOD=  0.000000000000000    
_BASIS2006=FALSE
_SVDDEL= -1.000000000000000    
_SVDDELA= -1.000000000000000    
_SVDDELP= -1.000000000000000    
_SVDDELF= -1.000000000000000    
_SVDDELS= -1.000000000000000    
_SVDDEL_ABS= -1.000000000000000    
_SVDDELA_ABS= -1.000000000000000    
_SVDDELP_ABS= -1.000000000000000    
_SVDDELF_ABS= -1.000000000000000    
_SVDDELS_ABS= -1.000000000000000    
_MAXBASIS=  0.000000000000000    
!OPT_CONICAL=  0.000000000000000    
!CLEARSP_JGRID=  0.000000000000000    
RCC1=  1.339199692756090    
RCC2=  1.096725517589114    
RCC3=  1.091909764315758    
RCH2=  1.090919782277010    
ACCC1=  119.7252876259245    
AHCC1=  122.3757741256048    
AHCC2=  118.7642211456448    
AHCC3=  130.3722542998892    
B1=  180.0000568617668    
B2=  180.0004710103985    
B3=  179.9996192529328    
RCH1=  1.800000000000000    
GX1= 0.1505401243388033E-05
GY1= 0.1666297858001360    
GZ1= -1.224867901581394    
GX2=-0.4778877191169805E-06
GY2=-0.7555017266787814E-01
GZ2=  1.294238269125846    
GX3=-0.8396013451182433E-05
GY3=  1.617643847928371    
GZ3=  2.489393201802810    
GX4= 0.7272678229948983E-05
GY4= -1.915948737403028    
GZ4=  2.227295428516779    
GX5=-0.9940152734377686E-05
GY5= -2.644833807909307    
GZ5= -3.139527814170002    
GX6=-0.1180757674108511E-05
GY6=  1.857799060767152    
GZ6= -2.403804747907840    
CBSEN= -78.30163620538977    
[Atoms] Angs
C     1    6         0.0000007966        0.0881766850       -0.6481721776
C     2    6        -0.0000002529       -0.0399794295        0.6848813950
H     3    1        -0.0000044430        0.8560202566        1.3173301466
H     4    1         0.0000038485       -1.0138764054        1.1786339785
H     5    1        -0.0000052601       -1.3995857727       -1.6613665663
H     6    1        -0.0000006248        0.9831049219       -1.2720386875
[GTO]
  1 0
 s   10  1.00
  0.8236000000D+04  0.5309998617D-03
  0.1235000000D+04  0.4107998930D-02
  0.2808000000D+03  0.2108699451D-01
  0.7927000000D+02  0.8185297868D-01
  0.2559000000D+02  0.2348169388D+00
  0.8997000000D+01  0.4344008869D+00
  0.3319000000D+01  0.3461289099D+00
  0.9059000000D+00  0.3937798974D-01
  0.3643000000D+00 -0.8982997660D-02
  0.1285000000D+00  0.2384999379D-02
 s   10  1.00
  0.8236000000D+04 -0.1129999414D-03
  0.1235000000D+04 -0.8779995449D-03
  0.2808000000D+03 -0.4539997647D-02
  0.7927000000D+02 -0.1813299060D-01
  0.2559000000D+02 -0.5575997110D-01
  0.8997000000D+01 -0.1268949342D+00
  0.3319000000D+01 -0.1703519117D+00
  0.9059000000D+00  0.1403819272D+00
  0.3643000000D+00  0.5986836897D+00
  0.1285000000D+00  0.3953887950D+00
 s   10  1.00
  0.8236000000D+04  0.0000000000D+00
  0.1235000000D+04  0.0000000000D+00
  0.2808000000D+03  0.0000000000D+00
  0.7927000000D+02  0.0000000000D+00
  0.2559000000D+02  0.0000000000D+00
  0.8997000000D+01  0.0000000000D+00
  0.3319000000D+01  0.0000000000D+00
  0.9059000000D+00  0.1000000000D+01
  0.3643000000D+00  0.0000000000D+00
  0.1285000000D+00  0.0000000000D+00
 s   10  1.00
  0.8236000000D+04  0.0000000000D+00
  0.1235000000D+04  0.0000000000D+00
  0.2808000000D+03  0.0000000000D+00
  0.7927000000D+02  0.0000000000D+00
  0.2559000000D+02  0.0000000000D+00
  0.8997000000D+01  0.0000000000D+00
  0.3319000000D+01  0.0000000000D+00
  0.9059000000D+00  0.0000000000D+00
  0.3643000000D+00  0.0000000000D+00
  0.1285000000D+00  0.1000000000D+01
 p    5  1.00
  0.1871000000D+02  0.1403099838D-01
  0.4133000000D+01  0.8686598995D-01
  0.1200000000D+01  0.2902159664D+00
  0.3827000000D+00  0.5010079421D+00
  0.1209000000D+00  0.3434059603D+00
 p    5  1.00
  0.1871000000D+02  0.0000000000D+00
  0.4133000000D+01  0.0000000000D+00
  0.1200000000D+01  0.0000000000D+00
  0.3827000000D+00  0.1000000000D+01
  0.1209000000D+00  0.0000000000D+00
 p    5  1.00
  0.1871000000D+02  0.0000000000D+00
  0.4133000000D+01  0.0000000000D+00
  0.1200000000D+01  0.0000000000D+00
  0.3827000000D+00  0.0000000000D+00
  0.1209000000D+00  0.1000000000D+01
 d    1  1.00
  0.1097000000D+01  0.1000000000D+01
 d    1  1.00
  0.3180000000D+00  0.1000000000D+01
 f    1  1.00
  0.7610000000D+00  0.1000000000D+01
  
  2 0
 s   10  1.00
  0.8236000000D+04  0.5309998617D-03
  0.1235000000D+04  0.4107998930D-02
  0.2808000000D+03  0.2108699451D-01
  0.7927000000D+02  0.8185297868D-01
  0.2559000000D+02  0.2348169388D+00
  0.8997000000D+01  0.4344008869D+00
  0.3319000000D+01  0.3461289099D+00
  0.9059000000D+00  0.3937798974D-01
  0.3643000000D+00 -0.8982997660D-02
  0.1285000000D+00  0.2384999379D-02
 s   10  1.00
  0.8236000000D+04 -0.1129999414D-03
  0.1235000000D+04 -0.8779995449D-03
  0.2808000000D+03 -0.4539997647D-02
  0.7927000000D+02 -0.1813299060D-01
  0.2559000000D+02 -0.5575997110D-01
  0.8997000000D+01 -0.1268949342D+00
  0.3319000000D+01 -0.1703519117D+00
  0.9059000000D+00  0.1403819272D+00
  0.3643000000D+00  0.5986836897D+00
  0.1285000000D+00  0.3953887950D+00
 s   10  1.00
  0.8236000000D+04  0.0000000000D+00
  0.1235000000D+04  0.0000000000D+00
  0.2808000000D+03  0.0000000000D+00
  0.7927000000D+02  0.0000000000D+00
  0.2559000000D+02  0.0000000000D+00
  0.8997000000D+01  0.0000000000D+00
  0.3319000000D+01  0.0000000000D+00
  0.9059000000D+00  0.1000000000D+01
  0.3643000000D+00  0.0000000000D+00
  0.1285000000D+00  0.0000000000D+00
 s   10  1.00
  0.8236000000D+04  0.0000000000D+00
  0.1235000000D+04  0.0000000000D+00
  0.2808000000D+03  0.0000000000D+00
  0.7927000000D+02  0.0000000000D+00
  0.2559000000D+02  0.0000000000D+00
  0.8997000000D+01  0.0000000000D+00
  0.3319000000D+01  0.0000000000D+00
  0.9059000000D+00  0.0000000000D+00
  0.3643000000D+00  0.0000000000D+00
  0.1285000000D+00  0.1000000000D+01
 p    5  1.00
  0.1871000000D+02  0.1403099838D-01
  0.4133000000D+01  0.8686598995D-01
  0.1200000000D+01  0.2902159664D+00
  0.3827000000D+00  0.5010079421D+00
  0.1209000000D+00  0.3434059603D+00
 p    5  1.00
  0.1871000000D+02  0.0000000000D+00
  0.4133000000D+01  0.0000000000D+00
  0.1200000000D+01  0.0000000000D+00
  0.3827000000D+00  0.1000000000D+01
  0.1209000000D+00  0.0000000000D+00
 p    5  1.00
  0.1871000000D+02  0.0000000000D+00
  0.4133000000D+01  0.0000000000D+00
  0.1200000000D+01  0.0000000000D+00
  0.3827000000D+00  0.0000000000D+00
  0.1209000000D+00  0.1000000000D+01
 d    1  1.00
  0.1097000000D+01  0.1000000000D+01
 d    1  1.00
  0.3180000000D+00  0.1000000000D+01
 f    1  1.00
  0.7610000000D+00  0.1000000000D+01
  
  3 0
 s    5  1.00
  0.3387000000D+02  0.6067999217D-02
  0.5095000000D+01  0.4530799416D-01
  0.1159000000D+01  0.2028219738D+00
  0.3258000000D+00  0.5039029350D+00
  0.1027000000D+00  0.3834209505D+00
 s    5  1.00
  0.3387000000D+02  0.0000000000D+00
  0.5095000000D+01  0.0000000000D+00
  0.1159000000D+01  0.0000000000D+00
  0.3258000000D+00  0.1000000000D+01
  0.1027000000D+00  0.0000000000D+00
 s    5  1.00
  0.3387000000D+02  0.0000000000D+00
  0.5095000000D+01  0.0000000000D+00
  0.1159000000D+01  0.0000000000D+00
  0.3258000000D+00  0.0000000000D+00
  0.1027000000D+00  0.1000000000D+01
 p    1  1.00
  0.1407000000D+01  0.1000000000D+01
 p    1  1.00
  0.3880000000D+00  0.1000000000D+01
 d    1  1.00
  0.1057000000D+01  0.1000000000D+01
  
  4 0
 s    5  1.00
  0.3387000000D+02  0.6067999217D-02
  0.5095000000D+01  0.4530799416D-01
  0.1159000000D+01  0.2028219738D+00
  0.3258000000D+00  0.5039029350D+00
  0.1027000000D+00  0.3834209505D+00
 s    5  1.00
  0.3387000000D+02  0.0000000000D+00
  0.5095000000D+01  0.0000000000D+00
  0.1159000000D+01  0.0000000000D+00
  0.3258000000D+00  0.1000000000D+01
  0.1027000000D+00  0.0000000000D+00
 s    5  1.00
  0.3387000000D+02  0.0000000000D+00
  0.5095000000D+01  0.0000000000D+00
  0.1159000000D+01  0.0000000000D+00
  0.3258000000D+00  0.0000000000D+00
  0.1027000000D+00  0.1000000000D+01
 p    1  1.00
  0.1407000000D+01  0.1000000000D+01
 p    1  1.00
  0.3880000000D+00  0.1000000000D+01
 d    1  1.00
  0.1057000000D+01  0.1000000000D+01
  
  5 0
 s    5  1.00
  0.3387000000D+02  0.6067999217D-02
  0.5095000000D+01  0.4530799416D-01
  0.1159000000D+01  0.2028219738D+00
  0.3258000000D+00  0.5039029350D+00
  0.1027000000D+00  0.3834209505D+00
 s    5  1.00
  0.3387000000D+02  0.0000000000D+00
  0.5095000000D+01  0.0000000000D+00
  0.1159000000D+01  0.0000000000D+00
  0.3258000000D+00  0.1000000000D+01
  0.1027000000D+00  0.0000000000D+00
 s    5  1.00
  0.3387000000D+02  0.0000000000D+00
  0.5095000000D+01  0.0000000000D+00
  0.1159000000D+01  0.0000000000D+00
  0.3258000000D+00  0.0000000000D+00
  0.1027000000D+00  0.1000000000D+01
 p    1  1.00
  0.1407000000D+01  0.1000000000D+01
 p    1  1.00
  0.3880000000D+00  0.1000000000D+01
 d    1  1.00
  0.1057000000D+01  0.1000000000D+01
  
  6 0
 s    5  1.00
  0.3387000000D+02  0.6067999217D-02
  0.5095000000D+01  0.4530799416D-01
  0.1159000000D+01  0.2028219738D+00
  0.3258000000D+00  0.5039029350D+00
  0.1027000000D+00  0.3834209505D+00
 s    5  1.00
  0.3387000000D+02  0.0000000000D+00
  0.5095000000D+01  0.0000000000D+00
  0.1159000000D+01  0.0000000000D+00
  0.3258000000D+00  0.1000000000D+01
  0.1027000000D+00  0.0000000000D+00
 s    5  1.00
  0.3387000000D+02  0.0000000000D+00
  0.5095000000D+01  0.0000000000D+00
  0.1159000000D+01  0.0000000000D+00
  0.3258000000D+00  0.0000000000D+00
  0.1027000000D+00  0.1000000000D+01
 p    1  1.00
  0.1407000000D+01  0.1000000000D+01
 p    1  1.00
  0.3880000000D+00  0.1000000000D+01
 d    1  1.00
  0.1057000000D+01  0.1000000000D+01
 
 
[MO]
 Sym=      1.1
 Ene=     -11.2627
 Spin= Alpha
 Occup=    2.000000
1 0.99890450242291
2 0.000687522393254
3 0.001569326216979
4 0.002343265949043
5 -0.000000011377120
6 0.000210481683327
7 -0.000876216379258
8 -0.000000001555689
9 0.000675761476685
10 0.003464306204939
11 -0.000000001762916
12 0.000081904973509
13 0.001801490601716
14 -0.000448570851627
15 -0.000104507326322
16 0.000553078177950
17 -0.000000000661069
18 -0.000000000421712
19 -0.000439548418205
20 0.000116248113253
21 -0.000800035576424
22 0.000683787463172
23 -0.000000000151484
24 -0.000000004761097
25 0.000815824747941
26 0.000000000953941
27 0.000045889524465
28 0.000445410835835
29 0.000000000148723
30 -0.000133239661649
31 -0.000151049718948
32 -0.000000001428569
33 0.000071672403953
34 -0.000446531625157
35 0.000000001248625
36 0.029539857876604
37 -0.000174764236968
38 0.000319123941281
39 -0.002163582829363
40 -0.000000006437295
41 0.000057551227005
42 -0.001069368386994
43 -0.000000002410801
44 -0.000139148406775
45 0.002117305264304
46 -0.000000000783989
47 -0.000253558690582
48 0.001884010475631
49 0.000146814621727
50 0.000084172420383
51 -0.000230987042110
52 0.000000000052670
53 0.000000000818964
54 -0.000018625530234
55 0.000046729823027
56 0.000819006137316
57 -0.000865735960343
58 -0.000000004412508
59 -0.000000004113489
60 0.001406229132339
61 0.000000000321524
62 0.000055309638674
63 0.000250729864263
64 0.000000000203318
65 0.000035405693385
66 -0.000208649654933
67 -0.000000000634689
68 -0.000109611360517
69 -0.000127739757356
70 -0.000000000154054
71 -0.000458641214624
72 -0.001358833455098
73 -0.000198370762777
74 -0.000000000106937
75 0.000016256466520
76 0.000025715063081
77 -0.000000002739166
78 0.000494027610152
79 0.000298396674293
80 -0.000020368436313
81 -0.000019113564552
82 0.000039482000865
83 0.000000000016529
84 0.000000000063483
85 -0.000024810015368
86 0.000228984116158
87 -0.000007011331170
88 -0.000478658449821
89 0.000000000021545
90 -0.000014568953247
91 0.000010277515645
92 -0.000000000854704
93 0.000114653036606
94 0.000424557458772
95 0.000043458489263
96 0.000035533337811
97 -0.000078991827074
98 0.000000000034154
99 -0.000000000172570
100 0.000037784447377
101 -0.001447589770967
102 0.000491683834964
103 -0.000000554955507
104 -0.000000000130091
105 -0.000015186078749
106 -0.000004053197397
107 0.000000001088675
108 0.000220827242834
109 0.000176232784826
110 -0.000095544796016
111 0.000064583891181
112 0.000030960904835
113 0.000000000697842
114 0.000000000735641
115 0.000140640702532
116 0.001040010265815
117 0.001299700074864
118 -0.000690457253542
119 -0.000000000465463
120 0.000210065473030
121 -0.000122891194522
122 0.000000001468226
123 -0.000628589740285
124 0.000174937809487
125 0.000083187628370
126 -0.000042839410558
127 -0.000040348217812
128 0.000000000084672
129 -0.000000000179641
130 0.000195211529047
 Sym=      2.1
 Ene=     -11.2354
 Spin= Alpha
 Occup=    2.000000
1 -0.030412376185773
2 -0.000879627970081
3 0.000320035434792
4 -0.001744160935646
5 0.000000003006873
6 -0.000217559596471
7 0.000790222016398
8 -0.000000000291518
9 0.000753143951337
10 -0.002090729287185
11 -0.000000000845047
12 0.000579690435494
13 -0.001606138803112
14 0.000198432048511
15 0.000100577431950
16 -0.000299009480462
17 0.000000000020039
18 0.000000000473846
19 0.000019920117409
20 0.000085252564169
21 0.000838103489785
22 -0.000923356053954
23 -0.000000001494828
24 0.000000001056128
25 0.000191066112805
26 0.000000000055418
27 -0.000049524446401
28 -0.000376747627951
29 -0.000000000615248
30 -0.000041545019756
31 0.000211412073858
32 0.000000000540897
33 0.000107989036977
34 0.000294047910018
35 -0.000000001070451
36 0.99890309921991
37 0.002177978334675
38 0.001790787419815
39 0.002105973809172
40 0.000000007189589
41 0.000030399549689
42 0.000694555417754
43 -0.000000001422697
44 0.000161270597821
45 -0.002428504588896
46 0.000000000789734
47 -0.000135335047754
48 -0.001225547708147
49 -0.000721523551120
50 0.000198480219868
51 0.000523043331252
52 -0.000000004290299
53 -0.000000001061849
54 -0.000075604776848
55 -0.000006351231177
56 -0.000776866636931
57 0.000783217868109
58 0.000000002786958
59 -0.000000001449429
60 0.000041097952415
61 -0.000000000408304
62 -0.000143762967803
63 -0.000623909374417
64 0.000000000178425
65 0.000003941248316
66 0.000038932837683
67 0.000000000369372
68 0.000188937012877
69 0.000798129426114
70 -0.000000003835732
71 0.000406159931102
72 0.000535953926219
73 -0.000516722099139
74 -0.000000001128169
75 0.000262021950151
76 0.000185104440150
77 0.000000001523672
78 -0.000173382006275
79 -0.000241502288236
80 0.000064122222692
81 -0.000110557749207
82 0.000046435526514
83 0.000000000849089
84 0.000000000874430
85 -0.000248380624549
86 0.000472462386047
87 0.000606107925979
88 -0.000706782681180
89 0.000000001297079
90 -0.000290679345247
91 0.000153381825711
92 -0.000000001762821
93 0.000283989659527
94 -0.000171824580874
95 0.000071736741546
96 -0.000157318281285
97 0.000085581539739
98 0.000000000965643
99 -0.000000000940350
100 0.000222421119611
101 0.000199681389331
102 -0.000210194569802
103 -0.000095884344549
104 0.000000000099266
105 0.000012001401211
106 0.000018062205190
107 -0.000000000651122
108 -0.000109587820027
109 -0.000130704926480
110 0.000022704297443
111 0.000013754053081
112 -0.000036458350524
113 -0.000000000168474
114 -0.000000000311121
115 -0.000047304839987
116 0.000225022859957
117 -0.001120481280809
118 -0.000548556515494
119 -0.000000000112449
120 -0.000000559657245
121 0.000031812970854
122 -0.000000000029494
123 0.000281762537153
124 -0.000519882284457
125 0.000055073654822
126 -0.000003870571528
127 -0.000051203083294
128 0.000000000199673
129 0.000000000034318
130 0.000019285724581
 Sym=      3.1
 Ene=      -1.0171
 Spin= Alpha
 Occup=    2.000000
1 -0.014514680722839
2 0.54707601571599
3 -0.009728425616411
4 -0.12928825130737
5 -0.000000551165139
6 0.055753180794129
7 0.25467348873076
8 0.000000022605630
9 0.008613147106361
10 -0.035198728914516
11 0.000000069523696
12 0.002044593323191
13 -0.071166865266304
14 -0.009497685433683
15 -0.004513054447869
16 0.014010739881551
17 -0.000000007744859
18 -0.000000017910670
19 -0.006110742949054
20 -0.007000473758891
21 -0.006748299770039
22 0.013748773528930
23 -0.000000004578756
24 -0.000000017734419
25 -0.015875579139111
26 0.000000013375922
27 0.001429769828534
28 0.006290926889565
29 -0.000000001869703
30 -0.001393836907225
31 -0.001944513612782
32 -0.000000016075980
33 -0.000524400610043
34 -0.006495650487147
35 0.000000013338737
36 -0.016471680425334
37 0.67999330535995
38 -0.016815608071330
39 -0.11122112134613
40 -0.000000038682172
41 0.029301184153082
42 -0.17935045606783
43 0.000000006350435
44 -0.006160320851683
45 0.041002993383745
46 -0.000000040154502
47 -0.011512222311746
48 0.053813815710071
49 -0.012850920372845
50 0.000065676177537
51 0.012785244195308
52 -0.000000063299775
53 -0.000000017789761
54 -0.002590757198029
55 -0.016455728146134
56 0.009666234865359
57 0.006789493280775
58 -0.000000131466478
59 0.000000001156326
60 -0.007247898022474
61 -0.000000007345082
62 -0.002176664810277
63 -0.007877082886301
64 0.000000005604073
65 -0.000062448302937
66 0.001040543237102
67 0.000000004250388
68 0.002982750590943
69 0.009527672441800
70 -0.000000046103833
71 0.23695698283556
72 -0.071325202412062
73 -0.091961672792810
74 0.000000016460210
75 -0.003523654101450
76 -0.003800770791864
77 -0.000000009390543
78 0.002520359132397
79 0.002283106798869
80 -0.000069774898277
81 -0.000538634372744
82 0.000608409271021
83 0.000000002228688
84 0.000000000282623
85 -0.000186202800978
86 0.23225297928463
87 -0.079324230949770
88 -0.085256786035433
89 -0.000000016501951
90 0.003766995959015
91 -0.002690408267720
92 0.000000024535495
93 -0.007128206638571
94 0.003333695696807
95 0.000116918372220
96 -0.000673871758971
97 0.000556953386751
98 0.000000002476313
99 -0.000000002078805
100 0.000422722354056
101 -0.013374870708643
102 0.004226082607809
103 -0.010260538386850
104 -0.000000000333261
105 0.000528449162880
106 0.000488316631722
107 0.000000018884993
108 0.003260478353283
109 0.002985948198695
110 -0.000346404437735
111 0.000281624565954
112 0.000064779871781
113 0.000000004595038
114 0.000000003640147
115 0.000796539117158
116 0.19113501664428
117 -0.060973069459032
118 -0.068010725613595
119 0.000000002101324
120 -0.002438566994135
121 0.002882746791581
122 -0.000000026233824
123 0.007127335588469
124 0.000245336939021
125 -0.000055653186726
126 -0.000722109874832
127 0.000777763061557
128 0.000000001898135
129 -0.000000002672452
130 0.000610169180669
 Sym=      4.1
 Ene=      -0.7587
 Spin= Alpha
 Occup=    2.000000
1 -0.006345411077065
2 0.51752969823817
3 -0.009113621348921
4 -0.029390869698759
5 -0.000000905665410
6 0.25892377558037
7 -0.12034243428295
8 0.000000022493612
9 -0.011252292422437
10 0.012566176119730
11 0.000000044649353
12 -0.038685523829620
13 0.042821096931682
14 -0.006929629989101
15 0.003732753242022
16 0.003196876747079
17 -0.000000019489960
18 -0.000000005701369
19 -0.008426888165132
20 -0.012474505422762
21 0.006876599937229
22 0.005597905485534
23 -0.000000057886488
24 -0.000000012017698
25 -0.016433985037779
26 0.000000017923463
27 0.000559634756935
28 0.004247756251179
29 -0.000000007060140
30 -0.002107207784801
31 -0.000503239424148
32 -0.000000016986709
33 0.001356378969353
34 -0.005195723613543
35 0.000000009684158
36 0.004393832990036
37 -0.39440244041081
38 0.008473096839672
39 -0.002286796450064
40 -0.000000600677288
41 0.10949168584843
42 -0.31214073234495
43 0.000000023485868
44 -0.010362972209771
45 0.030316387376785
46 0.000000027505372
47 -0.032700981352359
48 0.075839085059270
49 0.005784627508720
50 -0.009616652779716
51 0.003832025270996
52 0.000000078756894
53 0.000000012566376
54 -0.002823563805819
55 0.011920947136459
56 -0.012276701027929
57 0.000355753891470
58 0.000000110448728
59 0.000000045444619
60 -0.007051577818743
61 0.000000006325686
62 -0.000459850158649
63 0.002236292780223
64 -0.000000000243472
65 -0.000363294668753
66 0.001075840954441
67 -0.000000008243326
68 0.000980248397275
69 -0.004076142558943
70 0.000000024094932
71 -0.30189081927910
72 0.061166348282678
73 0.088584054437279
74 -0.000000031628343
75 0.006689485679694
76 0.001926455126975
77 -0.000000037061768
78 0.005717901115217
79 -0.001311242868082
80 0.000456592006534
81 -0.001775489993459
82 0.001318897986925
83 0.000000011647283
84 0.000000003004983
85 -0.000619552009799
86 -0.40674254883298
87 0.070675267179106
88 0.12700663653153
89 0.000000034918836
90 -0.009057932908877
91 0.003448994975526
92 0.000000043926975
93 -0.011028871766586
94 0.001576009747667
95 0.001184243696070
96 -0.001978726429755
97 0.000794482733686
98 0.000000014151743
99 -0.000000006084726
100 0.001573566282417
101 -0.013338336470861
102 0.001510508157260
103 -0.016144233015233
104 0.000000000897769
105 0.000911863887008
106 0.000289608535739
107 0.000000007905431
108 0.003206819094356
109 0.000746370537168
110 -0.000297388595677
111 0.000624363180685
112 -0.000326974585007
113 0.000000001958104
114 -0.000000000499463
115 0.000432725269670
116 0.53152491715259
117 -0.10363473948340
118 -0.16145326574148
119 0.000000011833432
120 -0.009466616722777
121 0.007076884589531
122 -0.000000001225736
123 -0.004431857016764
124 0.005937391475624
125 -0.001332148812503
126 0.001080702297343
127 0.000251446515160
128 -0.000000004734091
129 0.000000002462175
130 -0.002088969796991
 Sym=      5.1
 Ene=      -0.6148
 Spin= Alpha
 Occup=    2.000000
1 0.000711026449163
2 -0.10496595739978
3 0.002294053746908
4 0.028286340429768
5 -0.000000128171824
6 0.27809983054713
7 -0.43356608540875
8 0.000000011885649
9 -0.022247557157008
10 0.036802460847785
11 0.000000102231103
12 -0.060942409807630
13 0.081205414133671
14 0.001733900736612
15 0.009038864781388
16 -0.010772765518001
17 -0.000000019920293
18 0.000000011869689
19 0.001491916449479
20 0.000570456658381
21 0.008818672146118
22 -0.009389128804499
23 -0.000000028220458
24 0.000000014252729
25 0.004249115009117
26 -0.000000000703217
27 -0.002487376875752
28 -0.003941406585014
29 -0.000000001243828
30 -0.001677460504173
31 0.003721262213753
32 0.000000002187292
33 0.005014626772079
34 0.001566689616881
35 -0.000000002906187
36 -0.000389566668614
37 0.010733492661827
38 0.000384538539032
39 0.035932887320091
40 -0.000001515902797
41 0.34164026441723
42 0.52393385085899
43 0.000000123703089
44 -0.021508133427682
45 -0.046567088826009
46 0.000000346833759
47 -0.054924545079702
48 -0.10487700473793
49 0.000706953126107
50 0.011214485320609
51 -0.011921438446716
52 -0.000000049808923
53 -0.000000020433872
54 0.008675493669272
55 -0.002954898267504
56 0.011671208686174
57 -0.008716310418670
58 -0.000000055452158
59 -0.000000027437055
60 0.010752308977741
61 0.000000023975754
62 -0.000119398175231
63 0.004686014545681
64 -0.000000010055314
65 -0.001868948502017
66 -0.003589485665884
67 -0.000000022111535
68 0.002029137963740
69 -0.002697462574733
70 -0.000000011996966
71 0.59602647945027
72 -0.079053867940950
73 -0.14666255920389
74 0.000000052615130
75 -0.011037496019822
76 -0.006694114104182
77 0.000000075971598
78 -0.014102937338241
79 -0.006572419057386
80 -0.001788256657350
81 0.002139869933169
82 -0.000351613275819
83 -0.000000022176237
84 -0.000000016674464
85 0.003286947023479
86 -0.055034254100271
87 0.006504498252959
88 0.015555172517084
89 -0.000000006155968
90 0.001320349110919
91 0.004185286763929
92 -0.000000015096206
93 0.003822463535387
94 0.008395439968614
95 0.000386323216633
96 0.001672036844402
97 -0.002058360061035
98 -0.000000007211516
99 -0.000000005347281
100 0.001569840119899
101 0.018607552887610
102 -0.001721765631807
103 0.010245423353960
104 -0.000000000940818
105 0.000138360255583
106 -0.000720329839411
107 -0.000000000839161