[Molden Format]
[Molpro variables]
_NUMVAR=  691.0000000000000    
_EV2006= 0.3674930886769165E-01
_EV= 0.3674932534394180E-01
_KJOULE= 0.3808798324128737E-03
_KJOULE/MOL= 0.3808798324128737E-03
_CM= 0.4556335267302901E-05
_CM-1= 0.4556335267302901E-05
_KCAL= 0.1593601117815568E-02
_KCAL/MOL= 0.1593601117815568E-02
_KELVIN2006= 0.3166828861084835E-05
_KELVIN= 0.3166814820820034E-05
_HERTZ2006= 0.1519829850815779E-15
_HERTZ= 0.1519829846011223E-15
_HZ2006= 0.1519829850815779E-15
_HZ= 0.1519829846011223E-15
_TOA2006= 0.5291772490000000    
_TOA= 0.5291772090000000    
_TOANG2006= 0.5291772490000000    
_TOANG= 0.5291772090000000    
_TORAD= 0.1745329251994330E-01
_TOCM=  219474.6306700000    
_TODEBYE=  2.541580000000000    
_TOEV2006=  27.21139610000000    
_TOEV=  27.21138390000000    
_TOHERTZ2006=  6579683899900000.    
_TOHERTZ=  6579683920700000.    
_TOHZ2006=  6579683899900000.    
_TOHZ=  6579683920700000.    
_TOK2006=  315773.3000000000    
_TOK=  315774.7000000000    
_TOKCAL=  627.5096000000000    
_TOKELVIN2006=  315773.3000000000    
_TOKELVIN=  315774.7000000000    
_TOKJ=  2625.500000000000    
_TOKJOULE=  2625.500000000000    
_ANG2006=  1.889725988578923    
_ANG=  1.889726131421507    
_ANGSTROM2006=  1.889725988578923    
_ANGSTROM=  1.889726131421507    
_IGNORE_UNDEF=  2.000000000000000    
_STRICTCHECK=  0.000000000000000    
_SEW_ONEEL=  0.000000000000000    
_CPPDONE=FALSE
_DKROLL_DONE=  0.000000000000000    
_FOCKDONE=  0.000000000000000    
_GRADONE=FALSE
_HESSDONE=FALSE
_INTDONE=TRUE
_SCFDONE=FALSE
_MODUL_CUDA=FALSE
_MODUL_SLATER=FALSE
_MODUL_MRCC=FALSE
_MRCC_EXEC=
_FITC_AO_SAVED=FALSE
_FITC_MO_SAVED=FALSE
_SHARED_FS=TRUE
_LSTYP=SEWARD
_INTYP=INTS
_GEOMTYP=ZMAT
_GRADTYP=ALASKA
_DIRECT=FALSE
_SYNCM=  0.000000000000000    
_BASIS=CC-PVDZ
_ZORIENT=  1.000000000000000    
_NELEC=  16.00000000000000    
_SPIN=  0.000000000000000    
!SPIN=  0.000000000000000    
_QSDSTEP=  0.000000000000000    
_QSDIRC=  0.000000000000000    
_PROGRAM=RS2
_CPUSTEP= 0.6000000000000005E-01
_SYSSTEP= 0.1000000000000001E-01
_WALLSTEP=  1.340000000000000    
!DFMP2=  0.000000000000000    
!DFSCF=  0.000000000000000    
!SCSGRD=  0.000000000000000    
_BASINP=  610.0000000000000    
_CPUTOT=  1.860000000000000    
_DFTEXFAC=  1.000000000000000    
_DMX=-0.2313601622853481E-16
_DMY= 0.2207102134801868    
_DMZ= 0.2248936845763616    
_EMP2= -78.14360148908654    
_ENERGR= -77.89219166245431    
_ENERGU= -78.12666301393469    
_ENERGY= -78.14360148908654    
_ENUC=  30.32492920183421    
_GRADEXFAC=  9999.000000000000    
_GRADMETHOD=TRUE
!GRID_FREEZE= -1.000000000000000    
_ITERATIONS=  5.000000000000000    
_LASTNELEC=  2.000000000000000    
_LASTSPIN=  0.000000000000000    
_LASTSYM=  1.000000000000000    
_MPP_PROG=  1.000000000000000    
_NPROC_MPP=  4.000000000000000    
_NPROC_SMP=  1.000000000000000    
_NUMSTEP=  0.000000000000000    
_ORBITAL=  2142.200000000000    
_PI=  3.141592653589793    
!MCACT=  2.000000000000000    
!MCCLOSED=  7.000000000000000    
!MCFREEZE=  0.000000000000000    
!MCMS2=  0.000000000000000    
!MCNEL=  2.000000000000000    
!MCNSTSYM=  1.000000000000000    
!MCSTATE=  1.000000000000000    
!MCSYM=  1.000000000000000    
!MCWEIGHT=  1.000000000000000    
_SEIG_MIN= 0.4118819637637748E-02
_SEWPROP=TRUE
_STATUS=  1.000000000000000    
_SYSTOT= 0.3300000000000000    
_VERSION=  2010001.000000000    
_WALLTOT=  12.45000000000000    
_DATE=06-Sep-19
_LASTORB=MCSCF
_MACHINE=Linux-2.6.34-12-desktop/tt108(x86_64) 64 bit mpp version
_OUTPUT=/home/carlo/qm/combustion/barrierless/c2h4_c2h3_h/dist_3.0/molpro.xml
_PGROUP=C1
_TIME=00:23:55
_LIBMOL=/programs/molpro2010p/bin/../lib/
!SURFREC=  0.000000000000000    
!POLYREC=  0.000000000000000    
!DIPREC=  0.000000000000000    
!VSCFREC=  0.000000000000000    
!VCIREC=  0.000000000000000    
!PVCIREC=  0.000000000000000    
!VMP2REC=  0.000000000000000    
!VMCSCFREC=  0.000000000000000    
!GAREC=  0.000000000000000    
!SCFORB=  21002.00000000000    
!MCORB=  21422.00000000000    
!CIOCC=  9.000000000000000    
!CICORE=  2.000000000000000    
!CICLOS=  7.000000000000000    
!CIISTSYM=  1.000000000000000    
!CIISTMS2=  0.000000000000000    
!CIISTNEL=  12.00000000000000    
!NEWMOL=  0.000000000000000    
!NEWSYM=  0.000000000000000    
_SLFILES=slscratch
_NGSSTO=  9.000000000000000    
_SIN=SIN
_COS=COS
_TAN=TAN
_ACOS=ACOS
_ASIN=ASIN
_ATAN=ATAN
_COSH=COSH
_SINH=SINH
_TANH=TANH
_ABS=ABS
_MOD=MOD
_ERF=ERF
_REFC=REFC
_ERFC=ERFC
_HYPOT=HYPOT
_J0=J0
_J1=J1
_JN=JN
_GAMMA=GAMMA
_LGAMMA=LGAMMA
_Y0=Y0
_Y1=Y1
_YN=YN
_EXP=EXP
_LOG=LOG
_LOG10=LOG10
_SQRT=SQRT
_INT=INT
_NINT=NINT
_MAX=MAX
_MIN=MIN
_COSMO=  0.000000000000000    
_COSMOIT=  0.000000000000000    
_COSMOES=  0.000000000000000    
_COSMOEDS=  0.000000000000000    
_COSMOEC=  0.000000000000000    
_COSMOEDCORR=  0.000000000000000    
_FEPSI=  1.000000000000000    
_SL_IsMM=  0.000000000000000    
_SL_NSYM=  0.000000000000000    
_SL_System_BitSw=  0.000000000000000    
_SL_Unique_atoms=  0.000000000000000    
_SL_GRAD=  0.000000000000000    
_SL_MAXUPD_Hess=  5.000000000000000    
_SL_N_PRINT_COD=  5.000000000000000    
_SL_PRINT_CODES=  0.000000000000000    
_SL_BasType=  0.000000000000000    
_SL_Energy_Pred=  0.000000000000000    
_SL_New_Coords=  0.000000000000000    
_SL_Total_Nuclea=  0.000000000000000    
_SL_Highest_Mltp=  0.000000000000000    
_SL_Ref_Geom=  0.000000000000000    
!LATTICE= -1.000000000000000    
!NEWLATTICE=  0.000000000000000    
!LATGRAD_VAR=FALSE
!SEW_LATTICE=  1.000000000000000    
!LOCAL=  0.000000000000000    
!SAVEDOM= -1.000000000000000    
!RESTDOM= -1.000000000000000    
!SAVEDOM_HF= -1.000000000000000    
!RESTDOM_HF= -1.000000000000000    
!HESSREC=  0.000000000000000    
!FREQREC=  0.000000000000000    
!NMODREC=  0.000000000000000    
!GTASKS=  0.000000000000000    
!HTASKS=  0.000000000000000    
!THRCHG= 0.1000000000000000    
!DEBUG= -1.000000000000000    
!CFIT_CPHF=  0.000000000000000    
!RDOMAUX_CPHF=  3.000000000000000    
!THRAO_CPHF= 0.1000000000000000E-09
!THRMO_CPHF= 0.1000000000000000E-08
!THROV_CPHF= 0.1000000000000000E-11
!THRSW_CPHF= 0.1000000000000000E-09
!THRPROD_CPHF= 0.1000000000000000E-08
!THRAOPR_CPHF= 0.1000000000000000E-11
!CFIT_SCFGRD=  0.000000000000000    
!RDOMAUX_SCFGRD=  5.000000000000000    
!THRAO_SCFGRD= 0.1000000000000000E-09
!THRMO_SCFGRD= 0.1000000000000000E-08
!THROV_SCFGRD= 0.1000000000000000E-11
!THRSW_SCFGRD= 0.1000000000000000E-09
!THRPROD_SCFGRD= 0.1000000000000000E-08
!THRAOPR_SCFGRD= 0.1000000000000000E-11
!LOCFIT_SCF=  0.000000000000000    
!LOCFIT_MP2= -1.000000000000000    
_RIDOM=  0.000000000000000    
!CC2_METHOD=  0.000000000000000    
_BASIS2006=FALSE
_SVDDEL= -1.000000000000000    
_SVDDELA= -1.000000000000000    
_SVDDELP= -1.000000000000000    
_SVDDELF= -1.000000000000000    
_SVDDELS= -1.000000000000000    
_SVDDEL_ABS= -1.000000000000000    
_SVDDELA_ABS= -1.000000000000000    
_SVDDELP_ABS= -1.000000000000000    
_SVDDELF_ABS= -1.000000000000000    
_SVDDELS_ABS= -1.000000000000000    
_MAXBASIS=  0.000000000000000    
!OPT_CONICAL=  0.000000000000000    
!CLEARSP_JGRID=  0.000000000000000    
RCC1=  1.333157131668232    
RCC2=  1.099859996727622    
RCC3=  1.094614444850094    
RCH2=  1.091581804350850    
ACCC1=  120.8563339898868    
AHCC1=  121.8815295133198    
AHCC2=  118.8099017935009    
AHCC3=  136.0430292619583    
B1=  179.9999773633701    
B2=  180.0000108915332    
B3=  180.0000061851810    
RCH1=  3.000000000000000    
GX1=-0.2335547701350512E-07
GY1= 0.5088955982939720    
GZ1= -1.078323555805847    
GX2= 0.6200423403328794E-07
GY2=-0.3194792504484170    
GZ2=  1.300894176378427    
GX3=-0.2799898165467235E-06
GY3=  1.015039829398125    
GZ3=  2.894301673690028    
GX4=-0.2227043538279320E-06
GY4= -2.337513312820525    
GZ4=  1.755118573459761    
GX5=-0.7510072681452474E-08
GY5= -3.284044103284589    
GZ5= -5.291777256297260    
GX6= 0.4965081669678977E-07
GY6=  2.349359666619520    
GZ6= -2.009879953069786    
CBSEN= -78.14360148908654    
[Atoms] Angs
C     1    6         0.0000000000        0.2692959524       -0.5706242497
C     2    6         0.0000000000       -0.1690611381        0.6884035495
H     3    1         0.0000000000        0.5371359439        1.5315984817
H     4    1         0.0000000000       -1.2369587709        0.9287687482
H     5    1         0.0000000000       -1.7378412928       -2.8002879191
H     6    1         0.0000000000        1.2432275913       -1.0635826640
[GTO]
  1 0
 s    9  1.00
  0.6665000000D+04  0.6920001793D-03
  0.1000000000D+04  0.5329001381D-02
  0.2280000000D+03  0.2707700701D-01
  0.6471000000D+02  0.1017180264D+00
  0.2106000000D+02  0.2747400712D+00
  0.7495000000D+01  0.4485641162D+00
  0.2797000000D+01  0.2850740738D+00
  0.5215000000D+00  0.1520400394D-01
  0.1596000000D+00 -0.3191000827D-02
 s    9  1.00
  0.6665000000D+04 -0.1460000642D-03
  0.1000000000D+04 -0.1154000508D-02
  0.2280000000D+03 -0.5725002519D-02
  0.6471000000D+02 -0.2331201026D-01
  0.2106000000D+02 -0.6395502813D-01
  0.7495000000D+01 -0.1499810660D+00
  0.2797000000D+01 -0.1272620560D+00
  0.5215000000D+00  0.5445292395D+00
  0.1596000000D+00  0.5804962554D+00
 s    9  1.00
  0.6665000000D+04  0.0000000000D+00
  0.1000000000D+04  0.0000000000D+00
  0.2280000000D+03  0.0000000000D+00
  0.6471000000D+02  0.0000000000D+00
  0.2106000000D+02  0.0000000000D+00
  0.7495000000D+01  0.0000000000D+00
  0.2797000000D+01  0.0000000000D+00
  0.5215000000D+00  0.0000000000D+00
  0.1596000000D+00  0.1000000000D+01
 p    4  1.00
  0.9439000000D+01  0.3810902127D-01
  0.2002000000D+01  0.2094801169D+00
  0.5456000000D+00  0.5085572839D+00
  0.1517000000D+00  0.4688422617D+00
 p    4  1.00
  0.9439000000D+01  0.0000000000D+00
  0.2002000000D+01  0.0000000000D+00
  0.5456000000D+00  0.0000000000D+00
  0.1517000000D+00  0.1000000000D+01
 d    1  1.00
  0.5500000000D+00  0.1000000000D+01
  
  2 0
 s    9  1.00
  0.6665000000D+04  0.6920001793D-03
  0.1000000000D+04  0.5329001381D-02
  0.2280000000D+03  0.2707700701D-01
  0.6471000000D+02  0.1017180264D+00
  0.2106000000D+02  0.2747400712D+00
  0.7495000000D+01  0.4485641162D+00
  0.2797000000D+01  0.2850740738D+00
  0.5215000000D+00  0.1520400394D-01
  0.1596000000D+00 -0.3191000827D-02
 s    9  1.00
  0.6665000000D+04 -0.1460000642D-03
  0.1000000000D+04 -0.1154000508D-02
  0.2280000000D+03 -0.5725002519D-02
  0.6471000000D+02 -0.2331201026D-01
  0.2106000000D+02 -0.6395502813D-01
  0.7495000000D+01 -0.1499810660D+00
  0.2797000000D+01 -0.1272620560D+00
  0.5215000000D+00  0.5445292395D+00
  0.1596000000D+00  0.5804962554D+00
 s    9  1.00
  0.6665000000D+04  0.0000000000D+00
  0.1000000000D+04  0.0000000000D+00
  0.2280000000D+03  0.0000000000D+00
  0.6471000000D+02  0.0000000000D+00
  0.2106000000D+02  0.0000000000D+00
  0.7495000000D+01  0.0000000000D+00
  0.2797000000D+01  0.0000000000D+00
  0.5215000000D+00  0.0000000000D+00
  0.1596000000D+00  0.1000000000D+01
 p    4  1.00
  0.9439000000D+01  0.3810902127D-01
  0.2002000000D+01  0.2094801169D+00
  0.5456000000D+00  0.5085572839D+00
  0.1517000000D+00  0.4688422617D+00
 p    4  1.00
  0.9439000000D+01  0.0000000000D+00
  0.2002000000D+01  0.0000000000D+00
  0.5456000000D+00  0.0000000000D+00
  0.1517000000D+00  0.1000000000D+01
 d    1  1.00
  0.5500000000D+00  0.1000000000D+01
  
  3 0
 s    4  1.00
  0.1301000000D+02  0.1968498999D-01
  0.1962000000D+01  0.1379769298D+00
  0.4446000000D+00  0.4781477569D+00
  0.1220000000D+00  0.5012397451D+00
 s    4  1.00
  0.1301000000D+02  0.0000000000D+00
  0.1962000000D+01  0.0000000000D+00
  0.4446000000D+00  0.0000000000D+00
  0.1220000000D+00  0.1000000000D+01
 p    1  1.00
  0.7270000000D+00  0.1000000000D+01
  
  4 0
 s    4  1.00
  0.1301000000D+02  0.1968498999D-01
  0.1962000000D+01  0.1379769298D+00
  0.4446000000D+00  0.4781477569D+00
  0.1220000000D+00  0.5012397451D+00
 s    4  1.00
  0.1301000000D+02  0.0000000000D+00
  0.1962000000D+01  0.0000000000D+00
  0.4446000000D+00  0.0000000000D+00
  0.1220000000D+00  0.1000000000D+01
 p    1  1.00
  0.7270000000D+00  0.1000000000D+01
  
  5 0
 s    4  1.00
  0.1301000000D+02  0.1968498999D-01
  0.1962000000D+01  0.1379769298D+00
  0.4446000000D+00  0.4781477569D+00
  0.1220000000D+00  0.5012397451D+00
 s    4  1.00
  0.1301000000D+02  0.0000000000D+00
  0.1962000000D+01  0.0000000000D+00
  0.4446000000D+00  0.0000000000D+00
  0.1220000000D+00  0.1000000000D+01
 p    1  1.00
  0.7270000000D+00  0.1000000000D+01
  
  6 0
 s    4  1.00
  0.1301000000D+02  0.1968498999D-01
  0.1962000000D+01  0.1379769298D+00
  0.4446000000D+00  0.4781477569D+00
  0.1220000000D+00  0.5012397451D+00
 s    4  1.00
  0.1301000000D+02  0.0000000000D+00
  0.1962000000D+01  0.0000000000D+00
  0.4446000000D+00  0.0000000000D+00
  0.1220000000D+00  0.1000000000D+01
 p    1  1.00
  0.7270000000D+00  0.1000000000D+01
 
 
[MO]
 Sym=      1.1
 Ene=     -11.2648
 Spin= Alpha
 Occup=    2.000000
1 0.99947605883800
2 0.006186141987798
3 -0.006909149335181
4 0.0
5 0.001248478242186
6 0.000497633125555
7 0.0
8 -0.000936797010026
9 -0.000880727337546
10 -0.000695770417295
11 0.000356014580334
12 0.000339755836961
13 0.0
14 0.0
15 -0.001205720483630
16 0.055167722260528
17 -0.000922862691997
18 0.001991443067774
19 0.0
20 -0.000185448062287
21 0.000414063144901
22 0.0
23 0.001057083311743
24 -0.001173310327234
25 0.000275967567844
26 0.000127152807971
27 -0.000403120375816
28 0.0
29 0.0
30 -0.000385199682741
31 0.000196308880562
32 0.000025383798339
33 0.0
34 -0.000206867384792
35 -0.000166017329632
36 0.000051765720461
37 0.000733908634750
38 0.0
39 0.000023669814890
40 -0.000135117980739
41 -0.000263311717622
42 0.000195274115738
43 0.0
44 0.000017079182933
45 0.000023324163393
46 -0.001474395417122
47 0.002223641369232
48 0.0
49 0.000872020585546
50 -0.000075348309558
 Sym=      2.1
 Ene=     -11.2500
 Spin= Alpha
 Occup=    2.000000
1 -0.056202735690045
2 -0.001194841877227
3 0.002983415589992
4 0.0
5 -0.000055035987408
6 -0.000362236303502
7 0.0
8 -0.000513670443627
9 0.001180150461488
10 0.000342388523583
11 -0.000147792715458
12 -0.000194595808125
13 0.0
14 0.0
15 0.000178234811566
16 0.99982905220748
17 0.008074587669110
18 -0.009193704290585
19 0.0
20 -0.000047673132953
21 0.000048959829669
22 0.0
23 -0.000101490894626
24 0.000570412872102
25 -0.000750152636767
26 0.000278046509806
27 0.000472106126961
28 0.0
29 0.0
30 -0.000075904660785
31 -0.000554153791680
32 0.001455076367739
33 0.0
34 0.000396989537019
35 0.000359883327245
36 -0.000557581164256
37 0.001507229725918
38 0.0
39 -0.000528293804182
40 0.000047900197792
41 0.000036872076527
42 -0.000034561731912
43 0.0
44 -0.000000348518465
45 -0.000010040181015
46 0.000226464490577
47 0.000106556693772
48 0.0
49 -0.000162479575116
50 0.000063733644708
 Sym=      3.1
 Ene=      -1.0211
 Spin= Alpha
 Occup=    2.000000
1 -0.017254063579032
2 0.56667086583888
3 -0.12556441068820
4 0.0
5 -0.027996275069092
6 0.22720100504902
7 0.0
8 0.007293873628993
9 -0.059072720526445
10 -0.010031167491692
11 -0.009075523593056
12 0.019106691084748
13 0.0
14 0.0
15 -0.012899032963329
16 -0.023254702245102
17 0.65516890409647
18 -0.18750411460666
19 0.0
20 0.063868857619440
21 -0.16403981191160
22 0.0
23 -0.021242001490676
24 0.068423464925903
25 -0.006917202217044
26 -0.007387633199032
27 0.014304835416076
28 0.0
29 0.0
30 -0.011769807861379
31 0.20953801441189
32 -0.10305589929305
33 0.0
34 -0.011458592958903
35 -0.016950665038395
36 0.21260374089472
37 -0.096813755159786
38 0.0
39 0.019085977007518
40 -0.006463044179185
41 -0.001539351752959
42 -0.002662549950100
43 0.0
44 0.000169804075690
45 0.000190415123854
46 0.16713322483971
47 -0.072268324668442
48 0.0
49 -0.011780836367618
50 0.009487379066317
 Sym=      4.1
 Ene=      -0.7647
 Spin= Alpha
 Occup=    2.000000
1 -0.010539701237499
2 0.52098971371874
3 -0.093843807971239
4 0.0
5 0.23525113358607
6 -0.11552826667971
7 0.0
8 -0.055554988354684
9 0.027470255461557
10 -0.003012560275303
11 0.008476750748471
12 -0.005464190473168
13 0.0
14 0.0
15 -0.003018340736939
16 0.010549049875917
17 -0.38719804120789
18 0.062489501018123
19 0.0
20 0.14762107937918
21 -0.25790261962991
22 0.0
23 -0.032333301078720
24 0.057548944842698
25 0.001386740343582
26 -0.008301524614174
27 0.006914784270592
28 0.0
29 0.0
30 -0.012349541563576
31 -0.28537856612419
32 0.10178503282330
33 0.0
34 0.014634725415028
35 0.010817895716497
36 -0.34730688006998
37 0.13792085867245
38 0.0
39 -0.022129634581329
40 0.000295443101722
41 -0.002454589586885
42 -0.003716630382128
43 0.0
44 0.000225754480127
45 0.000184508412498
46 0.48624599775322
47 -0.18183407643039
48 0.0
49 -0.025531623286621
50 0.013316478461680
 Sym=      5.1
 Ene=      -0.6166
 Spin= Alpha
 Occup=    2.000000
1 -0.002534395457604
2 -0.10685014573825
3 0.057521012665096
4 0.0
5 0.36293132781007
6 -0.35360502686619
7 0.0
8 -0.097284941624698
9 0.094802763048650
10 -0.000690042263360
11 0.008967849057809
12 -0.008277806794449
13 0.0
14 0.0
15 0.008152059677753
16 -0.002607822228139
17 0.011953979845554
18 0.018900451052736
19 0.0
20 0.16341680200661
21 0.56603806518270
22 0.0
23 -0.028285690430511
24 -0.12423055901915
25 -0.001275713713234
26 0.011115119148359
27 -0.009839405435125
28 0.0
29 0.0
30 0.014240187659117
31 0.52431117650341
32 -0.15651592179578
33 0.0
34 -0.017212833598947
35 -0.013026058895322
36 -0.022204573834779
37 0.011015733532237
38 0.0
39 0.001094720578780
40 0.009663954793100
41 0.004021901309297
42 0.003355466366059
43 0.0
44 0.000102737004956
45 -0.000198662239889
46 0.37844196609966
47 -0.11544609183611
48 0.0
49 -0.014724025939117
50 0.003607335225070
 Sym=      6.1
 Ene=      -0.5768
 Spin= Alpha
 Occup=    2.000000
1 0.002037802200415
2 -0.031137991879512
3 -0.028507241248907
4 0.0
5 -0.13636781541806
6 0.31245799510342
7 0.0
8 0.028860817135754
9 -0.090000580435293
10 0.002233734923681
11 -0.021204946548317
12 0.018971211624636
13 0.0
14 0.0
15 0.019135151332595
16 0.000758964390451
17 0.030493560298412
18 -0.009596335850171
19 0.0
20 0.60344579393354
21 -0.098619772336064
22 0.0
23 -0.11969669480515
24 0.017504189096042
25 -0.000334961378667
26 -0.019005120457047
27 0.019340081835715
28 0.0
29 0.0
30 0.011816031479970
31 0.33645972136171
32 -0.085681978157497
33 0.0
34 -0.000022359665968
35 -0.015519449386188
36 -0.59740378460998
37 0.16539588745703
38 0.0
39 -0.020382379181054
40 0.005873136956353
41 0.006635548562507
42 0.006115057888764
43 0.0
44 -0.000117214061513
45 -0.000122917964905
46 -0.30059109109852
47 0.072474295443824
48 0.0
49 0.008582633918461
50 -0.001787923625309
 Sym=      7.1
 Ene=      -0.3826
 Spin= Alpha
 Occup=    2.000000
1 0.0
2 0.0
3 0.0
4 0.57582273736274
5 0.0
6 0.0
7 0.009613840199388
8 0.0
9 0.0
10 0.0
11 0.0
12 0.0
13 -0.006668475319902
14 0.034581388078587
15 0.0
16 0.0
17 0.0
18 0.0
19 0.58471366501271
20 0.0
21 0.0
22 0.024278973746920
23 0.0
24 0.0
25 0.0
26 0.0
27 0.0
28 0.011505527882963
29 -0.031163424725941
30 0.0
31 0.0
32 0.0
33 0.013468962057664
34 0.0
35 0.0
36 0.0
37 0.0
38 0.013339697931489
39 0.0
40 0.0
41 0.0
42 0.0
43 0.000755880101052
44 0.0
45 0.0
46 0.0
47 0.0
48 0.014189567206098
49 0.0
50 0.0
 Sym=      8.1
 Ene=      -0.2136
 Spin= Alpha
 Occup=    1.290980
1 -0.001077189083362
2 -0.22080468957472
3 -0.074556738133928
4 0.0
5 0.42203275276167
6 0.38983209144470
7 0.0
8 0.019372505985097
9 0.018736530012313
10 0.000316246428415
11 0.002102040475395
12 -0.002418286903810
13 0.0
14 0.0
15 -0.018598674275789
16 0.001959979524504
17 0.080978178372400
18 -0.029786138367527
19 0.0
20 -0.008615534557453
21 -0.097703303242435
22 0.0
23 -0.045159527864374
24 0.016310050485828
25 -0.000374600066405
26 0.014475292069491
27 -0.014100692003086
28 0.0
29 0.0
30 -0.022398160566401
31 -0.12516552872372
32 -0.010034851420334
33 0.0
34 0.000410347721973
35 -0.000591146597616
36 0.093740171909939
37 -0.017346003782391
38 0.0
39 -0.000266287074986
40 -0.002657845726446
41 -0.66211494846740
42 -0.028877175505734
43 0.0
44 -0.000321757516792
45 -0.000163059873000
46 0.14995850465714
47 -0.019876932990728
48 0.0
49 0.004917739307503
50 0.010224616264188
 Sym=      9.1
 Ene=      -0.0953
 Spin= Alpha
 Occup=    0.709020
1 -0.001560809693766
2 -0.25932553001635
3 -0.10255596241417
4 0.0
5 0.47047003293944
6 0.44173098775448
7 0.0
8 0.030502661357797
9 0.010255628780552
10 0.002972148105200
11 0.001009278705952
12 -0.003981426811151
13 0.0
14 0.0
15 -0.023238388106237
16 0.001204957908072
17 0.080663737486171
18 -0.014532942278994
19 0.0
20 -0.010265176586514
21 -0.10933328002276
22 0.0
23 -0.056178375455572
24 0.002702690267777
25 -0.001280987538929
26 0.015995193487001
27 -0.014714205948072
28 0.0
29 0.0
30 -0.024184616208404
31 -0.13709190344850
32 -0.001886340959725
33 0.0
34 0.000432423951184
35 0.000201491858712
36 0.095950807567659
37 -0.016887749487642
38 0.0
39 -0.000489980274403
40 -0.003196706323045
41 0.76129787520745
42 -0.032804983119759
43 0.0
44 -0.000935821409351
45 -0.001223213389101
46 0.15284211105959
47 -0.022354506141322
48 0.0
49 0.005058484765180
50 0.010452466567104
 Sym=     10.1
 Ene=       0.1656
 Spin= Alpha
 Occup=    0.000000
1 0.0
2 0.0
3 0.0
4 0.53875344164281
5 0.0
6 0.0
7 0.49516238253732
8 0.0
9 0.0
10 0.0
11 0.0
12 0.0
13 0.015735684925713
14 -0.018040769201824
15 0.0
16 0.0
17 0.0
18 0.0
19 -0.51074056429967
20 0.0
21 0.0
22 -0.50462269074569
23 0.0
24 0.0
25 0.0
26 0.0
27 0.0
28 0.008358833180548
29 -0.025831279186260
30 0.0
31 0.0
32 0.0
33 -0.018320094433163
34 0.0
35 0.0
36 0.0
37 0.0
38 -0.018595251286214
39 0.0
40 0.0
41 0.0
42 0.0
43 0.003304537683395
44 0.0
45 0.0
46 0.0
47 0.0
48 0.023855259165689
49 0.0
50 0.0
 Sym=     11.1
 Ene=       0.2094
 Spin= Alpha
 Occup=    0.000000
1 0.019916246468442
2 -0.070934459646171
3 -0.70880855315605
4 0.0
5 -0.14427581125246
6 0.11444084254090
7 0.0
8 -0.33466280186838
9 0.23993990707110
10 0.005007857612627
11 -0.006979821059282
12 0.001971963446655
13 0.0
14 0.0
15 0.012376442475225
16 0.059331236190704
17 -0.14567418564200
18 -1.68173711146610
19 0.0
20 0.001546591064520
21 -0.25264868920885
22 0.0
23 0.11414470701453
24 -0.48516274114305
25 0.020756168322044
26 -0.019355564485988
27 -0.001400603836056
28 0.0
29 0.0
30 -0.000077308007408
31 0.032073184222264
32 1.39913734649181
33 0.0
34 -0.010824664720053
35 -0.015751033989016
36 0.034726932559966
37 0.98361838679690
38 0.0
39 0.016770478499822
40 -0.005660807526497
41 -0.064994138642927
42 0.038192487998557
43 0.0
44 0.000101029334237
45 0.004294909531198
46 -0.028107899693623
47 1.00753547050259
48 0.0
49 -0.009031916961495
50 0.012973347492475
 Sym=     12.1
 Ene=       0.2221
 Spin= Alpha
 Occup=    0.000000
1 -0.039570387451778
2 0.15615256915620
3 1.05392725878629
4 0.0
5 0.25888721799787
6 -0.056603066907036
7 0.0
8 0.53872041162541
9 -0.30899377056330
10 -0.010697920453954
11 0.019600346592085
12 -0.008902426138131
13 0.0
14 0.0
15 -0.001746678078844
16 0.028402240962095
17 -0.16649671908619
18 -0.73831503855463
19 0.0
20 0.18743172097517
21 0.020217596428577
22 0.0
23 0.33769984003397
24 -0.17594527198498
25 0.010693349229039
26 -0.004719447611275
27 -0.005973901617764
28 0.0
29 0.0
30 -0.014975338258119
31 -0.009631239568890
32 0.10456019780687
33 0.0
34 -0.006320053575138
35 -0.001788124953664
36 0.064946914138930
37 1.28709780666938
38 0.0
39 0.014715161429848
40 0.002284054867083
41 -0.001195434457304
42 0.015398207546829
43 0.0
44 -0.001738055031480
45 0.000960362073617
46 -0.089828879622125
47 -1.72367942887425
48 0.0
49 0.021823428427649
50 -0.004849430943012
 Sym=     13.1
 Ene=       0.2695
 Spin= Alpha
 Occup=    0.000000
1 0.022888967876652
2 -0.068248810918734
3 -0.78506208990841
4 0.0
5 -0.086800737297360
6 0.035094689569871
7 0.0
8 -0.75976251197092
9 -0.024779503588522
10 0.017153582613740
11 -0.024288804252449
12 0.007135221638709
13 0.0
14 0.0
15 0.018267640621469
16 -0.010307288042079
17 0.013761752043213
18 0.17145587240456
19 0.0
20 0.38647841866054
21 0.13088028641433
22 0.0
23 1.36417982729317
24 0.40248010246475
25 -0.004756566940247
26 -0.012857859749366
27 0.017614426689613
28 0.0
29 0.0
30 0.024261414245809
31 0.015247569601252
32 -1.93303978715438
33 0.0
34 0.013232260893597
35 0.023154530283332
36 -0.031108049933372
37 1.73647168239140
38 0.0
39 0.020088753213102
40 -0.011537826102599
41 -0.10001196936019
42 0.029933415346846
43 0.0
44 0.006673864056250
45 0.009464975994803
46 -0.062354239751355
47 1.16654235220880
48 0.0
49 -0.017831284217175
50 0.010860881430736
 Sym=     14.1
 Ene=       0.4563
 Spin= Alpha
 Occup=    0.000000
1 -0.044900973519652
2 0.18059236589730
3 3.70911776456942
4 0.0
5 -0.22190903844931
6 0.18757693241490
7 0.0
8 -1.15826559772494
9 2.70106820255414
10 -0.030657520835176
11 -0.025708037626029
12 0.056365558461206
13 0.0
14 0.0
15 -0.039464308904511
16 0.080723435392744
17 0.058710091958570
18 -3.63103857247226
19 0.0
20 -0.016335695174636
21 0.089245274188346
22 0.0
23 -0.92192253266998
24 3.24602795459121
25 0.055850352952039
26 -0.032626934284984
27 -0.023223418667055
28 0.0
29 0.0
30 0.024357306528033
31 -0.23224736516992
32 -0.65253635786941
33 0.0
34 -0.013108306766440
35 0.004298209192948
36 -0.27220890708330
37 -0.25707618838014
38 0.0
39 0.021554022122730
40 0.007772082216467
41 0.17477343147870
42 -0.12324859397361
43 0.0
44 -0.015392935339333
45 -0.003335552491694
46 -0.086775651167238
47 1.15690115767673
48 0.0
49 0.016633518067751
50 0.000310909435245
 Sym=     15.1
 Ene=       0.5924
 Spin= Alpha
 Occup=    0.000000
1 0.18080802254265
2 0.57990976182698
3 -1.01003264513478
4 0.0
5 -0.12596831734482
6 0.44345322053547
7 0.0
8 0.42810803276945
9 -1.29767996615491
10 -0.085839589432831
11 0.053492030433375
12 0.032347558999457
13 0.0
14 0.0
15 -0.13368497578161
16 0.10778362220718
17 0.55509060621662
18 0.34293592788356
19 0.0
20 0.30050663162740
21 -0.67688251952712
22 0.0
23 -0.43885362713095
24 0.45897087503873
25 -0.028380305471047
26 -0.013273395495323
27 0.041653700966370
28 0.0
29 0.0
30 0.031860686310684
31 0.27020319173503
32 -0.093074283881165
33 0.0
34 0.001239813849501
35 0.051223030737458
36 -0.52185070467362
37 0.45228066882057
38 0.0
39 -0.017056870026256
40 -0.008780560751791
41 0.24007853888735
42 -0.30092823729800
43 0.0
44 0.011104244049292
45 0.002746639211802
46 0.78614369381284
47 -1.04092053175258
48 0.0
49 0.069378055972884
50 -0.087064756627583
 Sym=     16.1
 Ene=       0.6240
 Spin= Alpha
 Occup=    0.000000
1 -0.008921295569786
2 -0.043536051882924
3 -0.079877170314818
4 0.0
5 0.15391101555425
6 0.52052242598400
7 0.0
8 0.36727890016014
9 -1.43738450736596
10 0.047589173776574
11 -0.073077644503863
12 0.025488470727289
13 0.0
14 0.0
15 0.063989488275779
16 0.003765640578012
17 0.042748300717794
18 1.01352150701953
19 0.0
20 0.030401542196973
21 -0.23364360281984
22 0.0
23 0.11269414154689
24 0.33131817125381
25 -0.003542591380012
26 0.028682703956668
27 -0.025140112576656
28 0.0
29 0.0
30 -0.15465161076571
31 -0.88456906807156
32 0.75675351347290
33 0.0
34 -0.031948324437337
35 -0.024153486842326
36 0.22830176043254
37 -0.44145469569731
38 0.0
39 -0.028590985696559
40 0.061426640179111
41 -0.88555147288040
42 0.91426831936512
43 0.0
44 0.029884069433601
45 0.012064611412578
46 -0.89767288333434
47 0.25059156883629
48 0.0
49 -0.036003074996974
50 0.013386722381968
 Sym=     17.1
 Ene=       0.6616
 Spin= Alpha
 Occup=    0.000000
1 0.075831163985212
2 0.39729807398112
3 -0.97513664542928
4 0.0
5 -0.43597284465927
6 -0.11676793354821
7 0.0
8 0.85724873498510
9 -0.81963271474001
10 0.040192921801412
11 -0.062630878180451
12 0.022437956379039
13 0.0
14 0.0
15 0.034303171898996
16 0.012843953368773
17 0.022858752672572
18 0.86587485465901
19 0.0
20 0.027416649056629
21 -0.18935128077906
22 0.0
23 0.52314396510644
24 -0.23039312699332
25 -0.046954200413028
26 0.040585494240615
27 0.006368706172413
28 0.0
29 0.0
30 -0.026701129574601
31 -0.30412998088680
32 0.12197912225981
33 0.0
34 0.040624265311681
35 -0.007625121463737
36 0.62415144152321
37 -0.15341667716781
38 0.0
39 -0.042057851210799
40 0.045155550525556
41 1.60238048134685
42 -1.77973666426217
43 0.0
44 0.009285228623451
45 -0.007804305283184
46 -0.68554421267165
47 0.24789860895437
48 0.0
49 -0.036254275020517
50 -0.027956921182816
 Sym=     18.1
 Ene=       0.6814
 Spin= Alpha
 Occup=    0.000000
1 0.0
2 0.0
3 0.0
4 -0.99387754680447
5 0.0
6 0.0
7 1.07565793506685
8 0.0
9 0.0
10 0.0
11 0.0
12 0.0
13 0.042555591022749
14 -0.10600258091122
15 0.0
16 0.0
17 0.0
18 0.0
19 -1.00921653418370
20 0.0
21 0.0
22 1.09322391036483
23 0.0
24 0.0
25 0.0
26 0.0
27 0.0
28 -0.037071792598469
29 0.10620386897326
30 0.0
31 0.0
32 0.0
33 -0.017421277498749
34 0.0
35 0.0
36 0.0
37 0.0
38 -0.019066273557778
39 0.0
40 0.0
41 0.0
42 0.0
43 0.009037828676932
44 0.0
45 0.0
46 0.0
47 0.0
48 -0.018368263915655
49 0.0
50 0.0
 Sym=     19.1
 Ene=       0.7267
 Spin= Alpha
 Occup=    0.000000
1 -0.12084793325341
2 -0.73951417353093
3 0.096341225317274
4 0.0
5 0.19460834832237
6 -0.25523302717428
7 0.0
8 0.027789722502874
9 -0.33442938573176
10 0.031195729493803
11 -0.043569314755681
12 0.012373585261878
13 0.0
14 0.0
15 -0.054800113638817
16 -0.12920083734823
17 -0.17747401568223
18 1.10779218321853
19 0.0
20 -0.016384566618538
21 0.087957028028803
22 0.0
23 0.10834359237614
24 -0.41633575925742
25 0.26048093332518
26 -0.18042317190556
27 -0.080057761419625
28 0.0
29 0.0
30 -0.048810970077653
31 -1.17215576607880
32 1.03077819000639
33 0.0
34 -0.10119371310881
35 -0.078942905822952
36 -1.27095987981601
37 1.06514751973561
38 0.0
39 0.12474107395994
40 -0.014872806362133
41 0.55297416609813
42 -0.65056232568931
43 0.0
44 0.010203528767929
45 0.012564456186855
46 0.072695670884628
47 -0.32655832412581
48 0.0
49 0.001945728528943
50 -0.021845233461670
 Sym=     20.1
 Ene=       0.7978
 Spin= Alpha
 Occup=    0.000000
1 0.061068527822288
2 0.21177974003513
3 -0.097262015933406
4 0.0
5 -1.02025522076677
6 -0.67519133728798
7 0.0
8 1.67763059689146
9 0.43088890265369