[Molden Format]
[Molpro variables]
_NUMVAR=  685.0000000000000    
_EV2006= 0.3674930886769165E-01
_EV= 0.3674932534394180E-01
_KJOULE= 0.3808798324128737E-03
_KJOULE/MOL= 0.3808798324128737E-03
_CM= 0.4556335267302901E-05
_CM-1= 0.4556335267302901E-05
_KCAL= 0.1593601117815568E-02
_KCAL/MOL= 0.1593601117815568E-02
_KELVIN2006= 0.3166828861084835E-05
_KELVIN= 0.3166814820820034E-05
_HERTZ2006= 0.1519829850815779E-15
_HERTZ= 0.1519829846011223E-15
_HZ2006= 0.1519829850815779E-15
_HZ= 0.1519829846011223E-15
_TOA2006= 0.5291772490000000    
_TOA= 0.5291772090000000    
_TOANG2006= 0.5291772490000000    
_TOANG= 0.5291772090000000    
_TORAD= 0.1745329251994330E-01
_TOCM=  219474.6306700000    
_TODEBYE=  2.541580000000000    
_TOEV2006=  27.21139610000000    
_TOEV=  27.21138390000000    
_TOHERTZ2006=  6579683899900000.    
_TOHERTZ=  6579683920700000.    
_TOHZ2006=  6579683899900000.    
_TOHZ=  6579683920700000.    
_TOK2006=  315773.3000000000    
_TOK=  315774.7000000000    
_TOKCAL=  627.5096000000000    
_TOKELVIN2006=  315773.3000000000    
_TOKELVIN=  315774.7000000000    
_TOKJ=  2625.500000000000    
_TOKJOULE=  2625.500000000000    
_ANG2006=  1.889725988578923    
_ANG=  1.889726131421507    
_ANGSTROM2006=  1.889725988578923    
_ANGSTROM=  1.889726131421507    
_IGNORE_UNDEF=  2.000000000000000    
_STRICTCHECK=  0.000000000000000    
_SEW_ONEEL=  0.000000000000000    
_CPPDONE=FALSE
_DKROLL_DONE=  0.000000000000000    
_FOCKDONE=  0.000000000000000    
_GRADONE=FALSE
_HESSDONE=FALSE
_INTDONE=TRUE
_SCFDONE=FALSE
_MODUL_CUDA=FALSE
_MODUL_SLATER=FALSE
_MODUL_MRCC=FALSE
_MRCC_EXEC=
_FITC_AO_SAVED=FALSE
_FITC_MO_SAVED=FALSE
_SHARED_FS=TRUE
_LSTYP=SEWARD
_INTYP=INTS
_GEOMTYP=ZMAT
_GRADTYP=ALASKA
_DIRECT=FALSE
_SYNCM=  0.000000000000000    
_BASIS=CC-PVDZ
_ZORIENT=  1.000000000000000    
_NELEC=  10.00000000000000    
_SPIN=  0.000000000000000    
!SPIN=  0.000000000000000    
_QSDSTEP=  0.000000000000000    
_QSDIRC=  0.000000000000000    
_PROGRAM=RS2
_CPUSTEP= 0.3000000000000003E-01
_SYSSTEP=  0.000000000000000    
_WALLSTEP= 0.8500000000000000    
!DFMP2=  0.000000000000000    
!DFSCF=  0.000000000000000    
!SCSGRD=  0.000000000000000    
_BASINP=  610.0000000000000    
_CPUTOT= 0.5100000000000000    
_DFTEXFAC=  1.000000000000000    
_DMX= 0.5621359505528366E-06
_DMY= 0.5453965532196408E-05
_DMZ= 0.1189072663842889    
_EMP2= -40.19811133046997    
_ENERGR= -40.06286803892079    
_ENERGU= -40.18964659466207    
_ENERGY= -40.19811133046997    
_ENUC=  11.12977545280951    
_GRADEXFAC=  9999.000000000000    
_GRADMETHOD=TRUE
!GRID_FREEZE= -1.000000000000000    
_ITERATIONS=  5.000000000000000    
_LASTNELEC=  2.000000000000000    
_LASTSPIN=  0.000000000000000    
_LASTSYM=  1.000000000000000    
_MPP_PROG=  1.000000000000000    
_NPROC_MPP=  4.000000000000000    
_NPROC_SMP=  1.000000000000000    
_NUMSTEP=  0.000000000000000    
_ORBITAL=  2141.200000000000    
_PI=  3.141592653589793    
!MCACT=  2.000000000000000    
!MCCLOSED=  4.000000000000000    
!MCFREEZE=  0.000000000000000    
!MCMS2=  0.000000000000000    
!MCNEL=  2.000000000000000    
!MCNSTSYM=  1.000000000000000    
!MCSTATE=  1.000000000000000    
!MCSYM=  1.000000000000000    
!MCWEIGHT=  1.000000000000000    
_SEIG_MIN= 0.1525529071131113E-01
_SEWPROP=TRUE
_STATUS=  1.000000000000000    
_SYSTOT= 0.1300000000000000    
_VERSION=  2010001.000000000    
_WALLTOT=  6.340000000000000    
_DATE=03-Sep-19
_LASTORB=MCSCF
_MACHINE=Linux-2.6.34-12-desktop/tt108(x86_64) 64 bit mpp version
_OUTPUT=/home/carlo/qm/combustion/test_diss/newalg/ch4_ch3_h_vrc_test1/dist_3.0/molpro.xml
_PGROUP=C1
_TIME=21:28:26
_LIBMOL=/programs/molpro2010p/bin/../lib/
!SURFREC=  0.000000000000000    
!POLYREC=  0.000000000000000    
!DIPREC=  0.000000000000000    
!VSCFREC=  0.000000000000000    
!VCIREC=  0.000000000000000    
!PVCIREC=  0.000000000000000    
!VMP2REC=  0.000000000000000    
!VMCSCFREC=  0.000000000000000    
!GAREC=  0.000000000000000    
!SCFORB=  21002.00000000000    
!MCORB=  21412.00000000000    
!CIOCC=  6.000000000000000    
!CICORE=  1.000000000000000    
!CICLOS=  4.000000000000000    
!CIISTSYM=  1.000000000000000    
!CIISTMS2=  0.000000000000000    
!CIISTNEL=  8.000000000000000    
!NEWMOL=  0.000000000000000    
!NEWSYM=  0.000000000000000    
_SLFILES=slscratch
_NGSSTO=  9.000000000000000    
_SIN=SIN
_COS=COS
_TAN=TAN
_ACOS=ACOS
_ASIN=ASIN
_ATAN=ATAN
_COSH=COSH
_SINH=SINH
_TANH=TANH
_ABS=ABS
_MOD=MOD
_ERF=ERF
_REFC=REFC
_ERFC=ERFC
_HYPOT=HYPOT
_J0=J0
_J1=J1
_JN=JN
_GAMMA=GAMMA
_LGAMMA=LGAMMA
_Y0=Y0
_Y1=Y1
_YN=YN
_EXP=EXP
_LOG=LOG
_LOG10=LOG10
_SQRT=SQRT
_INT=INT
_NINT=NINT
_MAX=MAX
_MIN=MIN
_COSMO=  0.000000000000000    
_COSMOIT=  0.000000000000000    
_COSMOES=  0.000000000000000    
_COSMOEDS=  0.000000000000000    
_COSMOEC=  0.000000000000000    
_COSMOEDCORR=  0.000000000000000    
_FEPSI=  1.000000000000000    
_SL_IsMM=  0.000000000000000    
_SL_NSYM=  0.000000000000000    
_SL_System_BitSw=  0.000000000000000    
_SL_Unique_atoms=  0.000000000000000    
_SL_GRAD=  0.000000000000000    
_SL_MAXUPD_Hess=  5.000000000000000    
_SL_N_PRINT_COD=  5.000000000000000    
_SL_PRINT_CODES=  0.000000000000000    
_SL_BasType=  0.000000000000000    
_SL_Energy_Pred=  0.000000000000000    
_SL_New_Coords=  0.000000000000000    
_SL_Total_Nuclea=  0.000000000000000    
_SL_Highest_Mltp=  0.000000000000000    
_SL_Ref_Geom=  0.000000000000000    
!LATTICE= -1.000000000000000    
!NEWLATTICE=  0.000000000000000    
!LATGRAD_VAR=FALSE
!SEW_LATTICE=  1.000000000000000    
!LOCAL=  0.000000000000000    
!SAVEDOM= -1.000000000000000    
!RESTDOM= -1.000000000000000    
!SAVEDOM_HF= -1.000000000000000    
!RESTDOM_HF= -1.000000000000000    
!HESSREC=  0.000000000000000    
!FREQREC=  0.000000000000000    
!NMODREC=  0.000000000000000    
!GTASKS=  0.000000000000000    
!HTASKS=  0.000000000000000    
!THRCHG= 0.1000000000000000    
!DEBUG= -1.000000000000000    
!CFIT_CPHF=  0.000000000000000    
!RDOMAUX_CPHF=  3.000000000000000    
!THRAO_CPHF= 0.1000000000000000E-09
!THRMO_CPHF= 0.1000000000000000E-08
!THROV_CPHF= 0.1000000000000000E-11
!THRSW_CPHF= 0.1000000000000000E-09
!THRPROD_CPHF= 0.1000000000000000E-08
!THRAOPR_CPHF= 0.1000000000000000E-11
!CFIT_SCFGRD=  0.000000000000000    
!RDOMAUX_SCFGRD=  5.000000000000000    
!THRAO_SCFGRD= 0.1000000000000000E-09
!THRMO_SCFGRD= 0.1000000000000000E-08
!THROV_SCFGRD= 0.1000000000000000E-11
!THRSW_SCFGRD= 0.1000000000000000E-09
!THRPROD_SCFGRD= 0.1000000000000000E-08
!THRAOPR_SCFGRD= 0.1000000000000000E-11
!LOCFIT_SCF=  0.000000000000000    
!LOCFIT_MP2= -1.000000000000000    
_RIDOM=  0.000000000000000    
!CC2_METHOD=  0.000000000000000    
_BASIS2006=FALSE
_SVDDEL= -1.000000000000000    
_SVDDELA= -1.000000000000000    
_SVDDELP= -1.000000000000000    
_SVDDELF= -1.000000000000000    
_SVDDELS= -1.000000000000000    
_SVDDEL_ABS= -1.000000000000000    
_SVDDELA_ABS= -1.000000000000000    
_SVDDELP_ABS= -1.000000000000000    
_SVDDELF_ABS= -1.000000000000000    
_SVDDELS_ABS= -1.000000000000000    
_MAXBASIS=  0.000000000000000    
!OPT_CONICAL=  0.000000000000000    
!CLEARSP_JGRID=  0.000000000000000    
RCH1=  1.090130327181879    
RCH2=  1.090130704906441    
RCH3=  1.090131257609769    
AHCC1=  119.9107515342425    
AHCC2=  119.9083597184384    
AHCC3=  91.73004942845357    
B1=  173.9984483707896    
B2= -93.00124852970620    
RCH4=  3.000000000000000    
GX1= 0.6002594653414794E-05
GY1= 0.5502995691866741E-05
GZ1= 0.3444334394848416    
GX2=  1.024233439832003    
GY2=  1.786312318217250    
GZ2= 0.4065858056440312    
GX3=  1.034828667609411    
GY3= -1.780174415835902    
GZ3= 0.4068934057398046    
GX4= -2.059088221771772    
GY4=-0.6106928124120614E-02
GZ4= 0.4068646453014186    
GX5=-0.4541489199888504E-04
GY5=-0.9655006655603926E-04
GZ5= -5.324744953627961    
CBSEN= -40.19811133046997    
[Atoms] Angs
C     1    6         0.0000031764        0.0000029121        0.1822663262
H     2    1         0.5420009931        0.9452757670        0.2151559418
H     3    1         0.5476077461       -0.9420277289        0.2153187168
H     4    1        -1.0896225583       -0.0032316472        0.2153034974
H     5    1        -0.0000240325       -0.0000510921       -2.8177336732
[GTO]
  1 0
 s    9  1.00
  0.6665000000D+04  0.6920001793D-03
  0.1000000000D+04  0.5329001381D-02
  0.2280000000D+03  0.2707700701D-01
  0.6471000000D+02  0.1017180264D+00
  0.2106000000D+02  0.2747400712D+00
  0.7495000000D+01  0.4485641162D+00
  0.2797000000D+01  0.2850740738D+00
  0.5215000000D+00  0.1520400394D-01
  0.1596000000D+00 -0.3191000827D-02
 s    9  1.00
  0.6665000000D+04 -0.1460000642D-03
  0.1000000000D+04 -0.1154000508D-02
  0.2280000000D+03 -0.5725002519D-02
  0.6471000000D+02 -0.2331201026D-01
  0.2106000000D+02 -0.6395502813D-01
  0.7495000000D+01 -0.1499810660D+00
  0.2797000000D+01 -0.1272620560D+00
  0.5215000000D+00  0.5445292395D+00
  0.1596000000D+00  0.5804962554D+00
 s    9  1.00
  0.6665000000D+04  0.0000000000D+00
  0.1000000000D+04  0.0000000000D+00
  0.2280000000D+03  0.0000000000D+00
  0.6471000000D+02  0.0000000000D+00
  0.2106000000D+02  0.0000000000D+00
  0.7495000000D+01  0.0000000000D+00
  0.2797000000D+01  0.0000000000D+00
  0.5215000000D+00  0.0000000000D+00
  0.1596000000D+00  0.1000000000D+01
 p    4  1.00
  0.9439000000D+01  0.3810902127D-01
  0.2002000000D+01  0.2094801169D+00
  0.5456000000D+00  0.5085572839D+00
  0.1517000000D+00  0.4688422617D+00
 p    4  1.00
  0.9439000000D+01  0.0000000000D+00
  0.2002000000D+01  0.0000000000D+00
  0.5456000000D+00  0.0000000000D+00
  0.1517000000D+00  0.1000000000D+01
 d    1  1.00
  0.5500000000D+00  0.1000000000D+01
  
  2 0
 s    4  1.00
  0.1301000000D+02  0.1968498999D-01
  0.1962000000D+01  0.1379769298D+00
  0.4446000000D+00  0.4781477569D+00
  0.1220000000D+00  0.5012397451D+00
 s    4  1.00
  0.1301000000D+02  0.0000000000D+00
  0.1962000000D+01  0.0000000000D+00
  0.4446000000D+00  0.0000000000D+00
  0.1220000000D+00  0.1000000000D+01
 p    1  1.00
  0.7270000000D+00  0.1000000000D+01
  
  3 0
 s    4  1.00
  0.1301000000D+02  0.1968498999D-01
  0.1962000000D+01  0.1379769298D+00
  0.4446000000D+00  0.4781477569D+00
  0.1220000000D+00  0.5012397451D+00
 s    4  1.00
  0.1301000000D+02  0.0000000000D+00
  0.1962000000D+01  0.0000000000D+00
  0.4446000000D+00  0.0000000000D+00
  0.1220000000D+00  0.1000000000D+01
 p    1  1.00
  0.7270000000D+00  0.1000000000D+01
  
  4 0
 s    4  1.00
  0.1301000000D+02  0.1968498999D-01
  0.1962000000D+01  0.1379769298D+00
  0.4446000000D+00  0.4781477569D+00
  0.1220000000D+00  0.5012397451D+00
 s    4  1.00
  0.1301000000D+02  0.0000000000D+00
  0.1962000000D+01  0.0000000000D+00
  0.4446000000D+00  0.0000000000D+00
  0.1220000000D+00  0.1000000000D+01
 p    1  1.00
  0.7270000000D+00  0.1000000000D+01
  
  5 0
 s    4  1.00
  0.1301000000D+02  0.1968498999D-01
  0.1962000000D+01  0.1379769298D+00
  0.4446000000D+00  0.4781477569D+00
  0.1220000000D+00  0.5012397451D+00
 s    4  1.00
  0.1301000000D+02  0.0000000000D+00
  0.1962000000D+01  0.0000000000D+00
  0.4446000000D+00  0.0000000000D+00
  0.1220000000D+00  0.1000000000D+01
 p    1  1.00
  0.7270000000D+00  0.1000000000D+01
 
 
[MO]
 Sym=      1.1
 Ene=     -11.2404
 Spin= Alpha
 Occup=    2.000000
1 1.00131066105777
2 0.007605757446614
3 -0.007652544593484
4 -0.000000000917108
5 0.000000005728447
6 0.000102539913724
7 0.000000029818995
8 -0.000000001910239
9 -0.000016261847355
10 0.000356943100697
11 0.000357027275215
12 -0.000713970375912
13 -0.000000000604046
14 -0.000000049296578
15 -0.000000105299869
16 -0.000625241692730
17 0.001517383254194
18 0.000254902734228
19 0.000444531176384
20 0.000025846913515
21 -0.000625250652824
22 0.001517392811713
23 0.000257540554154
24 -0.000443005182064
25 0.000025922938025
26 -0.000625171267133
27 0.001517363269362
28 -0.000512405082682
29 -0.000001519486629
30 0.000025913901944
31 -0.000179121361084
32 0.000286320893739
33 -0.000000000365492
34 -0.000000000868121
35 0.000049663505281
 Sym=      2.1
 Ene=      -0.8988
 Spin= Alpha
 Occup=    2.000000
1 -0.026140733528497
2 0.76080769931972
3 -0.14278338973755
4 -0.000001960237288
5 0.000001308100899
6 0.015863748105912
7 0.000001503756491
8 -0.000000239934985
9 -0.003048502412751
10 0.001953123291885
11 0.001953121299601
12 -0.003906244591485
13 0.000000016357720
14 -0.000000270078902
15 -0.000000569934044
16 0.34629350714147
17 -0.14362069353607
18 -0.013914670296168
19 -0.024267632632433
20 -0.000385324413893
21 0.34629352835171
22 -0.14362063912482
23 -0.014058617577241
24 0.024184468896328
25 -0.000389520515137
26 0.34629469514060
27 -0.14362035724632
28 0.027973620281893
29 0.000083070410550
30 -0.000389124989210
31 0.005528865500791
32 0.000790200593706
33 0.000000001377359
34 0.000000001995202
35 0.000558067045820
 Sym=      3.1
 Ene=      -0.5705
 Spin= Alpha
 Occup=    2.000000
1 0.000000013364409
2 -0.000000159848478
3 -0.000000044416107
4 -0.004316221978514
5 -0.63935632514888
6 0.000054945257319
7 0.000793247318276
8 0.11750643789751
9 -0.000010169536297
10 0.000320023235947
11 -0.000320335825486
12 0.000000312589538
13 -0.023591165458540
14 -0.000013459585784
15 -0.002291265236252
16 -0.55362949635936
17 0.15685091430312
18 0.015075010826571
19 0.014110359342370
20 0.000703760026080
21 0.54744946103930
22 -0.15509986832692
23 -0.015227284672148
24 0.013725594617028
25 -0.000698310420386
26 0.006180241761877
27 -0.001750945882792
28 0.000256973236075
29 -0.012325429338016
30 -0.000006833129175
31 -0.000000807222965
32 0.000000077934863
33 -0.000002657140394
34 -0.000392652520981
35 -0.000000032789360
 Sym=      4.1
 Ene=      -0.5705
 Spin= Alpha
 Occup=    2.000000
1 -0.000000080352617
2 0.000004219268715
3 0.000000503492640
4 0.63935668790423
5 -0.004316081123201
6 -0.000025074141255
7 -0.11750317391201
8 0.000793249321195
9 0.000004678394411
10 -0.020431273730487
11 0.020431338834237
12 -0.000000065103749
13 -0.000369386322506
14 0.002293218095268
15 -0.000017489939237
16 0.31250065838388
17 -0.088534350440236
18 0.003770393322738
19 -0.015005409129848
20 -0.000397126795720
21 0.32320520002616
22 -0.091566955010597
23 0.003385772523561
24 0.015297206024844
25 -0.000413376051756
26 -0.63570773971604
27 0.18010207061126
28 -0.022665030273859
29 -0.000187091022316
30 0.000811132762027
31 0.000000411201786
32 0.000000007975267
33 0.000392658044819
34 -0.000002644281035
35 0.000000025741782
 Sym=      5.1
 Ene=      -0.1993
 Spin= Alpha
 Occup=    1.301197
1 -0.000581965346709
2 -0.005291476463326
3 -0.004482620915848
4 0.000024698311302
5 0.000053038720665
6 0.58970851743557
7 0.000002673403629
8 0.000005938742454
9 0.070061522848105
10 0.001875313049784
11 0.001875465202615
12 -0.003750778252399
13 0.000000099838344
14 -0.000000343448008
15 -0.000000428939988
16 0.019430443330142
17 -0.007517441047574
18 -0.000385011675123
19 -0.000671247657186
20 0.013477053981256
21 0.019427028195893
22 -0.007516686162474
23 -0.000388916185625
24 0.000671133278520
25 0.013476807218855
26 0.019426941107426
27 -0.007516803832623
28 0.000775486921335
29 0.000003468490947
30 0.013476695265707
31 -0.66206843815422
32 -0.033077367845506
33 -0.000000008625993
34 -0.000000023017525
35 -0.000246368929170
 Sym=      6.1
 Ene=      -0.0815
 Spin= Alpha
 Occup=    0.698803
1 0.002343165952213
2 -0.034886387129709
3 -0.024210718925269
4 0.000026032130605
5 0.000056009685446
6 0.67116512071493
7 0.000003077245444
8 0.000006619717075
9 0.079242874700124
10 0.001092734874855
11 0.001092666767943
12 -0.002185401642797
13 -0.000000078220690
14 -0.000000284835973
15 -0.000000241608021
16 0.003879678136764
17 0.000907773915294
18 0.000115137306669
19 0.000201052095851
20 0.013719532201440
21 0.003883545872985
22 0.000907276962263
23 0.000116232690542
24 -0.000197864856242
25 0.013719523902492
26 0.003883042033462
27 0.000907293443329
28 -0.000229698372147
29 0.000000489729000
30 0.013719369215119
31 0.76408612524884
32 -0.039105837742980
33 0.000000016888394
34 0.000000045396242
35 -0.001904822017176
 Sym=      7.1
 Ene=       0.2003
 Spin= Alpha
 Occup=    0.000000
1 -0.080985614781964
2 0.21950518258886
3 2.05476541078947
4 -0.000000120463224
5 0.000000305509415
6 0.029221729845508
7 -0.000007571588509
8 -0.000001307925209
9 0.023993309932102
10 0.013069085893647
11 0.013070355004133
12 -0.026139440897781
13 -0.000000074763088
14 -0.000001893822792
15 -0.000003973044406
16 -0.061120179462075
17 -1.00539743335935
18 0.008661820042441
19 0.015105568828957
20 0.001639713309655
21 -0.061118182615481
22 -1.00541151218322
23 0.008751489768799
24 -0.015053698599929
25 0.001642350274013
26 -0.061114170813458
27 -1.00540822098479
28 -0.017412376987236
29 -0.000051597499383
30 0.001642071271592
31 0.090781897125121
32 -0.030883134168112
33 -0.000000255373939
34 -0.000000619077717
35 -0.004162789825721
 Sym=      8.1
 Ene=       0.2685
 Spin= Alpha
 Occup=    0.000000
1 0.000000467470148
2 -0.000000152183766
3 -0.000009758330831
4 0.019667272987315
5 -0.44692215694962
6 0.000036280590908
7 0.054323220649374
8 -1.23448653946744
9 0.000105907131269
10 -0.000728458107748
11 0.000727967009435
12 0.000000491098313
13 -0.023978003525970
14 0.000142067145200
15 -0.003179958981681
16 0.022311141642288
17 1.81872011326278
18 -0.009482905843056
19 -0.020991080547641
20 -0.000256605358800
21 -0.023393113556177
22 -1.90696604158066
23 0.010420630414948
24 -0.021748370883742
25 0.000272590246207
26 0.001083941783766
27 0.088257992550542
28 0.001124875226272
29 -0.004130934807893
30 -0.000012353344713
31 -0.000008028878557
32 0.000001362381447
33 -0.000142308047378
34 0.003250601029448
35 0.000000310656116
 Sym=      9.1
 Ene=       0.2685
 Spin= Alpha
 Occup=    0.000000
1 0.000000257547453
2 0.000003467796486
3 -0.000003496140412
4 0.44692472080451
5 0.019667030280029
6 -0.000018855643263
7 1.23446495683210
8 0.054324558664935
9 -0.000054876535310
10 -0.020765744356195
11 0.020765090143100
12 0.000000654213095
13 0.000841385645558
14 0.003181618366337
15 0.000137878166275
16 -0.014140732518479
17 -1.15192875409083
18 0.010256609538438
19 0.010858066013803
20 0.000162573000678
21 -0.012265771358894
22 -0.99906500194127
23 0.009499189107790
24 -0.009045647045223
25 0.000142578027017
26 0.026395299274555
27 2.15100816400705
28 0.027115684930791
29 0.000250152244823
30 -0.000307048723270
31 0.000002700493379
32 0.000000305409472
33 -0.003249851170605
34 -0.000143748690569
35 -0.000000082262691
 Sym=     10.1
 Ene=       0.6140
 Spin= Alpha
 Occup=    0.000000
1 -0.000015575478067
2 -0.000035494638561
3 0.000097878085971
4 -0.44587224064251
5 0.001421636273895
6 0.000060207613074
7 1.64069939490203
8 -0.005231023893627
9 -0.000088823436699
10 0.10904955945969
11 -0.10907390282570
12 0.000024343366012
13 0.001523539403399
14 -0.005561834277021
15 0.000028525390742
16 -0.65904970427208
17 0.23427219927289
18 0.053136891026231
19 -0.032861514603128
20 -0.001026552663149
21 -0.67326142863855
22 0.23932461728205
23 0.052535792263586
24 0.032992597972733
25 -0.001054386076616
26 1.33198602646393
27 -0.47338803114938
28 -0.004166273424094
29 -0.000454718186708
30 0.002081024324002
31 -0.000273656149988
32 0.000291091498057
33 0.014161395952410
34 -0.000045373084905
35 0.000005481222941
 Sym=     11.1
 Ene=       0.6140
 Spin= Alpha
 Occup=    0.000000
1 -0.000004612282914
2 -0.000010330130857
3 0.000035491302651
4 -0.001421823806592
5 -0.44587617350519
6 0.000058643728581
7 0.005232380596424
8 1.64077169380029
9 -0.000151745849198
10 0.001315847643946
11 -0.001324661925940
12 0.000008814281994
13 -0.12593589799554
14 -0.000006914476210
15 -0.005551790079090
16 -1.15776391631038
17 0.41143207200239
18 -0.032641782640487
19 0.014529026502635
20 -0.001806896825472
21 1.14949676535593
22 -0.40848698713006
23 0.033201717484747
24 0.015135749546976
25 0.001792606659791
26 0.008173898615151
27 -0.002900035416015
28 -0.000236207125016
29 0.071851107886044
30 0.000007178888877
31 -0.000158895909721
32 0.000163447986906
33 0.000044937948786
34 0.014161355527879
35 0.000005625232814
 Sym=     12.1
 Ene=       0.6320
 Spin= Alpha
 Occup=    0.000000
1 -0.070508958010394
2 -0.14818999779138
3 0.51869044394373
4 0.000094580753223
5 0.000076267672569
6 0.40699490395405
7 -0.000305836990441
8 -0.000168007166076
9 -0.31474086817478
10 -0.062276919856783
11 -0.062244427875180
12 0.12452134773196
13 0.000009350110145
14 0.000008264055337
15 0.000015879020856
16 -0.49728948308674
17 0.26206050952459
18 -0.024125778320038
19 -0.042059921525009
20 0.014362342482408
21 -0.49748072593544
22 0.26214593293941
23 -0.024379717319262
24 0.041914537512784
25 0.014359464487964
26 -0.49772033506874
27 0.26220666708814
28 0.048488385066390
29 0.000139541633510
30 0.014359238202283
31 -1.76356116373989
32 1.91237844740409
33 -0.000002427798725
34 -0.000001167041030
35 0.020674141845116
 Sym=     13.1
 Ene=       0.7186
 Spin= Alpha
 Occup=    0.000000
1 -0.064768555325077
2 -0.026791175464148
3 0.35368722626381
4 -0.000023941816434
5 -0.000094326994165
6 -1.07995567383015
7 -0.000024730572582
8 0.000115012938169
9 1.30475044480438
10 -0.087968731964764
11 -0.087969534039082
12 0.17593826600385
13 0.000000183047337
14 0.000012686928088
15 0.000026766644254
16 -0.77117321463523
17 0.56726927592065
18 -0.036888664619256
19 -0.064330218870057
20 -0.038109189974627
21 -0.77117313582420
22 0.56727038397535
23 -0.037270409612912
24 0.064103607074793
25 -0.038120817759421
26 -0.77123227749134
27 0.56725322461811
28 0.074148133788055
29 0.000216966325353
30 -0.038119932287660
31 0.29584980084836
32 -0.26350236440619
33 -0.000000407881016
34 0.000000439244865
35 -0.030596751570326
 Sym=     14.1
 Ene=       0.7965
 Spin= Alpha
 Occup=    0.000000
1 -0.016448558127576
2 0.14768488601902
3 -0.14504260067343
4 0.000047529694813
5 0.000061090892079
6 0.94215323647640
7 -0.000087711067244
8 -0.000062977991955
9 -1.23022214230324
10 -0.082311409992020
11 -0.082319976323776
12 0.16463138631580
13 0.000000192817329
14 0.000014026627063
15 0.000029610169275
16 -0.68549533075348
17 0.65393789839674
18 -0.042142206671184
19 -0.073493462856618
20 0.029299150602011
21 -0.68546921413522
22 0.65393094115684
23 -0.042579791894720
24 0.073251938695709
25 0.029279786770323
26 -0.68549389984535
27 0.65389324190738
28 0.084721700486299
29 0.000255365040494
30 0.029281709628928
31 1.16794208401625
32 -1.46190374720496
33 0.000000591844851
34 0.000001904758145
35 0.095069690168348
 Sym=     15.1
 Ene=       0.8946
 Spin= Alpha
 Occup=    0.000000
1 0.000001260379704
2 0.000003558009751
3 -0.000003342848154
4 1.25680687917140
5 -0.035874510167532
6 -0.000048613164841
7 -2.31190724653402
8 0.065991620998849
9 0.000088843424912
10 0.28982778749548
11 -0.28982488581259
12 -0.000002901682891
13 0.012536824177579
14 -0.018110660707700
15 0.000544901623814
16 -0.28455770362294
17 0.94590509632977
18 -0.015636006966309
19 -0.14699733181101
20 -0.004819803427932
21 -0.31742172371015
22 1.05514410715584
23 -0.026201836885809
24 0.15933988081040
25 -0.005403929947164
26 0.60201533775475
27 -2.00108201400385
28 -0.28622128438069
29 -0.002978314107208
30 0.010235802615419
31 -0.000003541262980
32 0.000004805663893
33 -0.001047402316791
34 0.000032146915539
35 -0.000001773093823
 Sym=     16.1
 Ene=       0.8946
 Spin= Alpha
 Occup=    0.000000
1 0.000000750968061
2 0.000005399547584
3 -0.000009152501724
4 0.035874362028142
5 1.25680576318875
6 -0.000102223896148
7 -0.065991481544084
8 -2.31192002467586
9 0.000191235411822
10 0.010857942152069
11 -0.010862216182438
12 0.000004274030369
13 -0.33465734394588
14 -0.000488187854455
15 -0.018082060039986
16 -0.53085113294458
17 1.76452870920812
18 -0.15323851018147
19 -0.20307460135115
20 -0.008991569288697
21 0.51186660129474
22 -1.70144578942291
23 0.15309517487618
24 -0.19250530643673
25 0.008703650336220
26 0.018968276413192
27 -0.063062257082158
28 -0.009220927691055
29 0.067514589217307
30 0.000316885141563
31 0.000017793496703
32 -0.000021692612636
33 -0.000027571269058
34 -0.001044722388097
35 -0.000001372666627
 Sym=     17.1
 Ene=       1.0681
 Spin= Alpha
 Occup=    0.000000
1 -0.80112284035098
2 -3.63148100156202
3 6.08223106480995
4 0.000006741259355
5 0.000003656136096
6 0.025313553411517
7 -0.000028547965914
8 -0.000002930431973
9 -0.002964827113517
10 0.017438473302510
11 0.017451704130665
12 -0.034890177433175
13 -0.000000646861765
14 -0.000000418813501
15 -0.000002105574651
16 -0.17631989049203
17 -0.83811248134423
18 0.090462990206415
19 0.15777083978187
20 0.011320897054321
21 -0.17631584798954
22 -0.83812214498788
23 0.091399226049064
24 -0.15722871733329
25 0.011344156203504
26 -0.17632316107842
27 -0.83812760786919
28 -0.18186158698401
29 -0.000538986035209
30 0.011341188742047
31 0.19017074832210
32 -0.25158350424913
33 -0.000001245853800
34 -0.000002660659861
35 0.091412304062796
 Sym=     18.1
 Ene=       1.2127
 Spin= Alpha
 Occup=    0.000000
1 0.000003751357457
2 0.000015767077188
3 -0.000025769357375
4 0.000033255523571
5 -0.006494870648565
6 -0.000005087214929
7 0.000097916393421
8 -0.019205510168821
9 0.000010402932433
10 0.000112720480852
11 -0.000018672149062
12 -0.000094048331790
13 -0.034147196812026
14 -0.003193950854836
15 0.62580043336743
16 0.017951093647292
17 -0.004324642602439
18 -0.016241698919027
19 0.001213089246771
20 0.35793472031068
21 -0.017985572117831
22 0.004333026469640
23 0.016148951227004
24 0.001179073536854
25 -0.35881932977638
26 0.000049380013841
27 -0.000012148294563
28 -0.000069014225088
29 0.029271363189939
30 0.000882242351224
31 -0.000030412579191
32 0.000038086102790
33 0.000026229673607
34 -0.005151174843037
35 -0.000006680349549
 Sym=     19.1
 Ene=       1.2127
 Spin= Alpha
 Occup=    0.000000
1 0.000002490041653
2 0.000010573779965
3 -0.000017196898796
4 -0.006494369541706
5 -0.000033099784225
6 -0.000000605678757
7 -0.019204505856483
8 -0.000098300524501
9 0.000005195980938
10 0.029637195139339
11 -0.029591867182055
12 -0.000045327957284
13 0.000184119105269
14 0.62580177646052
15 0.003199841907961
16 0.010414547290591
17 -0.002508343931729
18 0.019934270440456
19 -0.016129108212068
20 0.20767303040780
21 0.010337839510597
22 -0.002490199965236
23 0.019907235742577
24 0.016288248800478
25 0.20613817909926
26 -0.020743932818108
27 0.004997968041577
28 -0.008178860007581
29 0.000002598093067
30 -0.41381878030379
31 -0.000014714518872
32 0.000018559808184
33 -0.005151138292355
34 -0.000026399489617
35 -0.000003660062199
 Sym=     20.1
 Ene=       1.5173
 Spin= Alpha
 Occup=    0.000000
1 0.000001460991011
2 0.000006369189054
3 -0.000012294678318
4 0.012461119711323
5 -0.012966388633072
6 0.000001925436426
7 0.042484469924300
8 -0.044238969990327
9 0.000000597362016
10 -0.028423742894655
11 0.028422550319870
12 0.000001192574785
13 -0.034781501801801
14 0.003065505465872
15 -0.003188183993999
16 0.020927283089512
17 0.001746043615384
18 -0.033315601168589
19 0.024690365804257
20 -0.001937304527030
21 -0.072362824533472
22 -0.006001636561276
23 -0.017194742088582
24 0.009394637110373
25 0.006694161498964
26 0.051433230329717
27 0.004265849681379
28 -0.012007024193963
29 0.030993009950128
30 -0.004761127334177
31 0.000001055073038
32 -0.000001337229699
33 0.69032120470587
34 -0.71857717898743
35 -0.000002342851253
 Sym=     21.1
 Ene=       1.5173
 Spin= Alpha
 Occup=    0.000000
1 -0.000003301132911
2 -0.000014503225810
3 0.000026580191704
4 0.012963179127518
5 0.012448837219908
6 -0.000004921450945
7 0.044236845064710
8 0.042512263228611
9 -0.000001662167707
10 -0.030119086937078
11 0.030120908139666
12 -0.000001821202588
13 0.032823518608531
14 0.003185230261290
15 0.003057291540633
16 -0.071462118869574
17 -0.005962657493205
18 -0.018690592675289
19 -0.008367226238325
20 0.006614686934303
21 0.017615274318377
22 0.001466159891193
23 -0.033992963040464
24 -0.024480061529831
25 -0.001625181125300
26 0.053852838138369
27 0.004473943859825
28 -0.012388021245291
29 -0.029667140868314
30 -0.004978630024213
31 -0.000002433541362
32 0.000003086105225
33 0.71857770408385
34 0.69032129889703
35 0.000004072858034
 Sym=     22.1
 Ene=       1.5414
 Spin= Alpha
 Occup=    0.000000
1 0.067536799219239
2 0.30941556973906
3 -0.42967644478590
4 -0.000005200944550
5 -0.000011432795254
6 -0.26452944224699
7 0.000021694851539
8 0.000045861578619
9 0.26028891672985
10 0.062206484086140
11 0.062224045158092
12 -0.12443052924423
13 0.000021701522702
14 -0.000007042964459
15 -0.000015570655889
16 -0.003077112100031
17 0.033764484717477
18 -0.007140321064565
19 -0.012456034340926
20 0.090630390017394
21 -0.003006370419574
22 0.033749954769499
23 -0.007225200739556
24 0.012404585669300
25 0.090618685831161
26 -0.003012581879066
27 0.033750840364037
28 0.014355455145800
29 0.000028723462174
30 0.090617851867467
31 -0.10291937731256
32 0.14722336636210
33 -0.000003033770677
34 -0.000008260736555
35 0.97398366951784
 Sym=     23.1
 Ene=       1.6124
 Spin= Alpha
 Occup=    0.000000
1 -0.000000000423275
2 -0.000000001833616
3 0.000000003147542
4 0.000000035382259
5 -0.000006001452300
6 0.000000003872931
7 -0.000000979807375
8 0.000117779814088
9 -0.000000012948015
10 0.000000127672250
11 -0.000000128374476
12 0.000000000702226
13 0.000053254895908
14 -0.000000028315808
15 0.000002709173295
16 -0.000110969504973
17 0.000025630914798
18 0.51529556948754
19 -0.29548452496775
20 0.000008942437512
21 0.000111858951256
22 -0.000025955475128
23 -0.51353048555408
24 -0.29854090010614
25 0.000042249820841
26 -0.000000890655337
27 0.000000324893512
28 -0.001764355820236
29 0.59392758142507
30 -0.000051188385707
31 0.000000001786285
32 -0.000000002915467
33 0.000000162304305
34 -0.000015989913094
35 -0.000000008450433
 Sym=     24.1
 Ene=       1.7164
 Spin= Alpha
 Occup=    0.000000
1 0.000000876796500
2 0.000001887088217
3 -0.000008226255772
4 -0.000239676808500
5 -0.030903203370958
6 0.000020693421090
7 0.009184557919532
8 1.18076191781468
9 -0.000114675866889
10 -0.007293703401970
11 0.007278495756548