[Molden Format]
[Molpro variables]
_NUMVAR=  685.0000000000000    
_EV2006= 0.3674930886769165E-01
_EV= 0.3674932534394180E-01
_KJOULE= 0.3808798324128737E-03
_KJOULE/MOL= 0.3808798324128737E-03
_CM= 0.4556335267302901E-05
_CM-1= 0.4556335267302901E-05
_KCAL= 0.1593601117815568E-02
_KCAL/MOL= 0.1593601117815568E-02
_KELVIN2006= 0.3166828861084835E-05
_KELVIN= 0.3166814820820034E-05
_HERTZ2006= 0.1519829850815779E-15
_HERTZ= 0.1519829846011223E-15
_HZ2006= 0.1519829850815779E-15
_HZ= 0.1519829846011223E-15
_TOA2006= 0.5291772490000000    
_TOA= 0.5291772090000000    
_TOANG2006= 0.5291772490000000    
_TOANG= 0.5291772090000000    
_TORAD= 0.1745329251994330E-01
_TOCM=  219474.6306700000    
_TODEBYE=  2.541580000000000    
_TOEV2006=  27.21139610000000    
_TOEV=  27.21138390000000    
_TOHERTZ2006=  6579683899900000.    
_TOHERTZ=  6579683920700000.    
_TOHZ2006=  6579683899900000.    
_TOHZ=  6579683920700000.    
_TOK2006=  315773.3000000000    
_TOK=  315774.7000000000    
_TOKCAL=  627.5096000000000    
_TOKELVIN2006=  315773.3000000000    
_TOKELVIN=  315774.7000000000    
_TOKJ=  2625.500000000000    
_TOKJOULE=  2625.500000000000    
_ANG2006=  1.889725988578923    
_ANG=  1.889726131421507    
_ANGSTROM2006=  1.889725988578923    
_ANGSTROM=  1.889726131421507    
_IGNORE_UNDEF=  2.000000000000000    
_STRICTCHECK=  0.000000000000000    
_SEW_ONEEL=  0.000000000000000    
_CPPDONE=FALSE
_DKROLL_DONE=  0.000000000000000    
_FOCKDONE=  0.000000000000000    
_GRADONE=FALSE
_HESSDONE=FALSE
_INTDONE=TRUE
_SCFDONE=FALSE
_MODUL_CUDA=FALSE
_MODUL_SLATER=FALSE
_MODUL_MRCC=FALSE
_MRCC_EXEC=
_FITC_AO_SAVED=FALSE
_FITC_MO_SAVED=FALSE
_SHARED_FS=TRUE
_LSTYP=SEWARD
_INTYP=INTS
_GEOMTYP=ZMAT
_GRADTYP=ALASKA
_DIRECT=FALSE
_SYNCM=  0.000000000000000    
_BASIS=CC-PVDZ
_ZORIENT=  1.000000000000000    
_NELEC=  10.00000000000000    
_SPIN=  0.000000000000000    
!SPIN=  0.000000000000000    
_QSDSTEP=  0.000000000000000    
_QSDIRC=  0.000000000000000    
_PROGRAM=RS2
_CPUSTEP= 0.4000000000000004E-01
_SYSSTEP= 0.9999999999999981E-02
_WALLSTEP= 0.9100000000000000    
!DFMP2=  0.000000000000000    
!DFSCF=  0.000000000000000    
!SCSGRD=  0.000000000000000    
_BASINP=  610.0000000000000    
_CPUTOT= 0.5400000000000000    
_DFTEXFAC=  1.000000000000000    
_DMX=-0.8535294013399530E-07
_DMY=-0.7115497413501259E-08
_DMZ= 0.3264231533522761    
_EMP2= -40.26875262837088    
_ENERGR= -40.12914812343930    
_ENERGU= -40.26017205788320    
_ENERGY= -40.26875262837088    
_ENUC=  12.01841693881291    
_GRADEXFAC=  9999.000000000000    
_GRADMETHOD=TRUE
!GRID_FREEZE= -1.000000000000000    
_ITERATIONS=  5.000000000000000    
_LASTNELEC=  2.000000000000000    
_LASTSPIN=  0.000000000000000    
_LASTSYM=  1.000000000000000    
_MPP_PROG=  1.000000000000000    
_NPROC_MPP=  4.000000000000000    
_NPROC_SMP=  1.000000000000000    
_NUMSTEP=  0.000000000000000    
_ORBITAL=  2141.200000000000    
_PI=  3.141592653589793    
!MCACT=  2.000000000000000    
!MCCLOSED=  4.000000000000000    
!MCFREEZE=  0.000000000000000    
!MCMS2=  0.000000000000000    
!MCNEL=  2.000000000000000    
!MCNSTSYM=  1.000000000000000    
!MCSTATE=  1.000000000000000    
!MCSYM=  1.000000000000000    
!MCWEIGHT=  1.000000000000000    
_SEIG_MIN= 0.1374123896448676E-01
_SEWPROP=TRUE
_STATUS=  1.000000000000000    
_SYSTOT= 0.1400000000000000    
_VERSION=  2010001.000000000    
_WALLTOT=  7.930000000000000    
_DATE=30-Aug-19
_LASTORB=MCSCF
_MACHINE=Linux-2.6.34-12-desktop/tt105(x86_64) 64 bit mpp version
_OUTPUT=/home/carlo/qm/combustion/test_diss/newalg/ch4_ch3_h_vrc_test1/dist_1.8/molpro.xml
_PGROUP=C1
_TIME=02:42:37
_LIBMOL=/programs/molpro2010p/bin/../lib/
!SURFREC=  0.000000000000000    
!POLYREC=  0.000000000000000    
!DIPREC=  0.000000000000000    
!VSCFREC=  0.000000000000000    
!VCIREC=  0.000000000000000    
!PVCIREC=  0.000000000000000    
!VMP2REC=  0.000000000000000    
!VMCSCFREC=  0.000000000000000    
!GAREC=  0.000000000000000    
!SCFORB=  21002.00000000000    
!MCORB=  21412.00000000000    
!CIOCC=  6.000000000000000    
!CICORE=  1.000000000000000    
!CICLOS=  4.000000000000000    
!CIISTSYM=  1.000000000000000    
!CIISTMS2=  0.000000000000000    
!CIISTNEL=  8.000000000000000    
!NEWMOL=  0.000000000000000    
!NEWSYM=  0.000000000000000    
_SLFILES=slscratch
_NGSSTO=  9.000000000000000    
_SIN=SIN
_COS=COS
_TAN=TAN
_ACOS=ACOS
_ASIN=ASIN
_ATAN=ATAN
_COSH=COSH
_SINH=SINH
_TANH=TANH
_ABS=ABS
_MOD=MOD
_ERF=ERF
_REFC=REFC
_ERFC=ERFC
_HYPOT=HYPOT
_J0=J0
_J1=J1
_JN=JN
_GAMMA=GAMMA
_LGAMMA=LGAMMA
_Y0=Y0
_Y1=Y1
_YN=YN
_EXP=EXP
_LOG=LOG
_LOG10=LOG10
_SQRT=SQRT
_INT=INT
_NINT=NINT
_MAX=MAX
_MIN=MIN
_COSMO=  0.000000000000000    
_COSMOIT=  0.000000000000000    
_COSMOES=  0.000000000000000    
_COSMOEDS=  0.000000000000000    
_COSMOEC=  0.000000000000000    
_COSMOEDCORR=  0.000000000000000    
_FEPSI=  1.000000000000000    
_SL_IsMM=  0.000000000000000    
_SL_NSYM=  0.000000000000000    
_SL_System_BitSw=  0.000000000000000    
_SL_Unique_atoms=  0.000000000000000    
_SL_GRAD=  0.000000000000000    
_SL_MAXUPD_Hess=  5.000000000000000    
_SL_N_PRINT_COD=  5.000000000000000    
_SL_PRINT_CODES=  0.000000000000000    
_SL_BasType=  0.000000000000000    
_SL_Energy_Pred=  0.000000000000000    
_SL_New_Coords=  0.000000000000000    
_SL_Total_Nuclea=  0.000000000000000    
_SL_Highest_Mltp=  0.000000000000000    
_SL_Ref_Geom=  0.000000000000000    
!LATTICE= -1.000000000000000    
!NEWLATTICE=  0.000000000000000    
!LATGRAD_VAR=FALSE
!SEW_LATTICE=  1.000000000000000    
!LOCAL=  0.000000000000000    
!SAVEDOM= -1.000000000000000    
!RESTDOM= -1.000000000000000    
!SAVEDOM_HF= -1.000000000000000    
!RESTDOM_HF= -1.000000000000000    
!HESSREC=  0.000000000000000    
!FREQREC=  0.000000000000000    
!NMODREC=  0.000000000000000    
!GTASKS=  0.000000000000000    
!HTASKS=  0.000000000000000    
!THRCHG= 0.1000000000000000    
!DEBUG= -1.000000000000000    
!CFIT_CPHF=  0.000000000000000    
!RDOMAUX_CPHF=  3.000000000000000    
!THRAO_CPHF= 0.1000000000000000E-09
!THRMO_CPHF= 0.1000000000000000E-08
!THROV_CPHF= 0.1000000000000000E-11
!THRSW_CPHF= 0.1000000000000000E-09
!THRPROD_CPHF= 0.1000000000000000E-08
!THRAOPR_CPHF= 0.1000000000000000E-11
!CFIT_SCFGRD=  0.000000000000000    
!RDOMAUX_SCFGRD=  5.000000000000000    
!THRAO_SCFGRD= 0.1000000000000000E-09
!THRMO_SCFGRD= 0.1000000000000000E-08
!THROV_SCFGRD= 0.1000000000000000E-11
!THRSW_SCFGRD= 0.1000000000000000E-09
!THRPROD_SCFGRD= 0.1000000000000000E-08
!THRAOPR_SCFGRD= 0.1000000000000000E-11
!LOCFIT_SCF=  0.000000000000000    
!LOCFIT_MP2= -1.000000000000000    
_RIDOM=  0.000000000000000    
!CC2_METHOD=  0.000000000000000    
_BASIS2006=FALSE
_SVDDEL= -1.000000000000000    
_SVDDELA= -1.000000000000000    
_SVDDELP= -1.000000000000000    
_SVDDELF= -1.000000000000000    
_SVDDELS= -1.000000000000000    
_SVDDEL_ABS= -1.000000000000000    
_SVDDELA_ABS= -1.000000000000000    
_SVDDELP_ABS= -1.000000000000000    
_SVDDELF_ABS= -1.000000000000000    
_SVDDELS_ABS= -1.000000000000000    
_MAXBASIS=  0.000000000000000    
!OPT_CONICAL=  0.000000000000000    
!CLEARSP_JGRID=  0.000000000000000    
RCH1=  1.094089621793260    
RCH2=  1.094089713330657    
RCH3=  1.094089863649833    
AHCC1=  115.5225858858409    
AHCC2=  115.5225876061019    
AHCC3=  102.3969392383998    
B1=  139.2055211185866    
B2= -110.3972483675767    
RCH4=  1.800000000000000    
GX1= 0.3108386609218527E-07
GY1= 0.1269780979321067E-07
GZ1= 0.1300494296861702    
GX2=  1.464434242535117    
GY2=  1.390358394372541    
GZ2= 0.5739134521485089    
GX3= 0.4718683247550042    
GY3= -1.963416748778884    
GZ3= 0.5739130458378645    
GX4= -1.936303489435575    
GY4= 0.5730582030943671    
GZ4= 0.5739121772427871    
GX5= 0.5517381717057290E-06
GY5= 0.1110223024625157E-15
GZ5= -3.271457606872502    
CBSEN= -40.26875262837088    
[Atoms] Angs
C     1    6         0.0000000164        0.0000000067        0.0688191942
H     2    1         0.7749452252        0.7357459746        0.3037019188
H     3    1         0.2497019631       -1.0389953952        0.3037017038
H     4    1        -1.0246476763        0.3032493405        0.3037012442
H     5    1         0.0000002920        0.0000000000       -1.7311808058
[GTO]
  1 0
 s    9  1.00
  0.6665000000D+04  0.6920001793D-03
  0.1000000000D+04  0.5329001381D-02
  0.2280000000D+03  0.2707700701D-01
  0.6471000000D+02  0.1017180264D+00
  0.2106000000D+02  0.2747400712D+00
  0.7495000000D+01  0.4485641162D+00
  0.2797000000D+01  0.2850740738D+00
  0.5215000000D+00  0.1520400394D-01
  0.1596000000D+00 -0.3191000827D-02
 s    9  1.00
  0.6665000000D+04 -0.1460000642D-03
  0.1000000000D+04 -0.1154000508D-02
  0.2280000000D+03 -0.5725002519D-02
  0.6471000000D+02 -0.2331201026D-01
  0.2106000000D+02 -0.6395502813D-01
  0.7495000000D+01 -0.1499810660D+00
  0.2797000000D+01 -0.1272620560D+00
  0.5215000000D+00  0.5445292395D+00
  0.1596000000D+00  0.5804962554D+00
 s    9  1.00
  0.6665000000D+04  0.0000000000D+00
  0.1000000000D+04  0.0000000000D+00
  0.2280000000D+03  0.0000000000D+00
  0.6471000000D+02  0.0000000000D+00
  0.2106000000D+02  0.0000000000D+00
  0.7495000000D+01  0.0000000000D+00
  0.2797000000D+01  0.0000000000D+00
  0.5215000000D+00  0.0000000000D+00
  0.1596000000D+00  0.1000000000D+01
 p    4  1.00
  0.9439000000D+01  0.3810902127D-01
  0.2002000000D+01  0.2094801169D+00
  0.5456000000D+00  0.5085572839D+00
  0.1517000000D+00  0.4688422617D+00
 p    4  1.00
  0.9439000000D+01  0.0000000000D+00
  0.2002000000D+01  0.0000000000D+00
  0.5456000000D+00  0.0000000000D+00
  0.1517000000D+00  0.1000000000D+01
 d    1  1.00
  0.5500000000D+00  0.1000000000D+01
  
  2 0
 s    4  1.00
  0.1301000000D+02  0.1968498999D-01
  0.1962000000D+01  0.1379769298D+00
  0.4446000000D+00  0.4781477569D+00
  0.1220000000D+00  0.5012397451D+00
 s    4  1.00
  0.1301000000D+02  0.0000000000D+00
  0.1962000000D+01  0.0000000000D+00
  0.4446000000D+00  0.0000000000D+00
  0.1220000000D+00  0.1000000000D+01
 p    1  1.00
  0.7270000000D+00  0.1000000000D+01
  
  3 0
 s    4  1.00
  0.1301000000D+02  0.1968498999D-01
  0.1962000000D+01  0.1379769298D+00
  0.4446000000D+00  0.4781477569D+00
  0.1220000000D+00  0.5012397451D+00
 s    4  1.00
  0.1301000000D+02  0.0000000000D+00
  0.1962000000D+01  0.0000000000D+00
  0.4446000000D+00  0.0000000000D+00
  0.1220000000D+00  0.1000000000D+01
 p    1  1.00
  0.7270000000D+00  0.1000000000D+01
  
  4 0
 s    4  1.00
  0.1301000000D+02  0.1968498999D-01
  0.1962000000D+01  0.1379769298D+00
  0.4446000000D+00  0.4781477569D+00
  0.1220000000D+00  0.5012397451D+00
 s    4  1.00
  0.1301000000D+02  0.0000000000D+00
  0.1962000000D+01  0.0000000000D+00
  0.4446000000D+00  0.0000000000D+00
  0.1220000000D+00  0.1000000000D+01
 p    1  1.00
  0.7270000000D+00  0.1000000000D+01
  
  5 0
 s    4  1.00
  0.1301000000D+02  0.1968498999D-01
  0.1962000000D+01  0.1379769298D+00
  0.4446000000D+00  0.4781477569D+00
  0.1220000000D+00  0.5012397451D+00
 s    4  1.00
  0.1301000000D+02  0.0000000000D+00
  0.1962000000D+01  0.0000000000D+00
  0.4446000000D+00  0.0000000000D+00
  0.1220000000D+00  0.1000000000D+01
 p    1  1.00
  0.7270000000D+00  0.1000000000D+01
 
 
[MO]
 Sym=      1.1
 Ene=     -11.2640
 Spin= Alpha
 Occup=    2.000000
1 1.00136372676246
2 0.007396006831134
3 -0.008476464981151
4 0.000000000042295
5 -0.000000000043487
6 0.000697724455800
7 -0.000000000124954
8 0.000000000134884
9 0.000138829818334
10 0.000356973162469
11 0.000356973330966
12 -0.000713946493435
13 0.000000000276532
14 0.000000000469555
15 0.000000000010710
16 -0.000175804933142
17 0.001351904995036
18 0.000294028461377
19 0.000279155562697
20 0.000137690691359
21 -0.000175804465603
22 0.001351904639399
23 0.000094741532563
24 -0.000394213973111
25 0.000137690559320
26 -0.000175804009830
27 0.001351904001796
28 -0.000388770238418
29 0.000115058422073
30 0.000137690374209
31 0.000065438763762
32 0.000271322987579
33 -0.000000000017401
34 0.000000000008553
35 0.000280575241764
 Sym=      2.1
 Ene=      -0.9081
 Spin= Alpha
 Occup=    2.000000
1 -0.023425326369437
2 0.75220673160400
3 -0.15593965470517
4 0.000000033281400
5 -0.000000001095617
6 0.12425351865005
7 -0.000000029174287
8 0.000000001063311
9 -0.021116019659304
10 0.001901274734127
11 0.001901278878957
12 -0.003802553613084
13 0.000000003363461
14 0.000000004749333
15 0.000000000247377
16 0.35367897238190
17 -0.14567064689687
18 -0.020099776481780
19 -0.019083065976804
20 -0.002983991767443
21 0.35367890102406
22 -0.14567061177683
23 -0.006476524511709
24 0.026948449383017
25 -0.002983984702051
26 0.35367877158133
27 -0.14567055334015
28 0.026576302712429
29 -0.007865382509290
30 -0.002983970421286
31 0.012050629693065
32 -0.022778228564629
33 -0.000000000516813
34 0.000000000013703
35 0.005766883630982
 Sym=      3.1
 Ene=      -0.5695
 Spin= Alpha
 Occup=    2.000000
1 -0.000000000773723
2 -0.000000024388772
3 -0.000000027903312
4 0.35579226673208
5 0.54023262684614
6 0.000000128808704
7 -0.063757601440682
8 -0.096809124082850
9 -0.000000033777833
10 0.005633442088711
11 -0.005633448229991
12 0.000000006141281
13 0.022550806650443
14 0.007607516422478
15 0.011551206989290
16 0.61365383185558
17 -0.17204961723618
18 -0.016803786909717
19 -0.011997441675910
20 -0.006211688780490
21 -0.43067130190434
22 0.12074694636375
23 0.012325871212730
24 -0.011796218819702
25 0.004359453264908
26 -0.18298259654951
27 0.051302670986312
28 -0.002413227569273
29 0.013330196934437
30 0.001852230890685
31 -0.000000010190050
32 0.000000011222865
33 0.001859330242509
34 0.002823194536820
35 -0.000000001446537
 Sym=      4.1
 Ene=      -0.5695
 Spin= Alpha
 Occup=    2.000000
1 -0.000000000436076
2 -0.000000046920024
3 -0.000000038660136
4 0.54023258886932
5 -0.35579225374954
6 0.000000181613537
7 -0.096809069769528
8 0.063757572344571
9 -0.000000047478233
10 -0.019529581145932
11 0.019529573011475
12 0.000000008134456
13 0.006504943391422
14 0.011551188788089
15 -0.007607510400457
16 0.14300310441559
17 -0.040093660096462
18 0.005021802978745
19 -0.012209696027268
20 -0.001447541032812
21 0.45993820984338
22 -0.12895247133267
23 0.004820579353448
24 0.016919965858317
25 -0.004655700699697
26 -0.60294139170696
27 0.16904612950318
28 -0.020305843891911
29 0.002180868579711
30 0.006103235564548
31 -0.000000014029474
32 0.000000015688808
33 0.002823195409463
34 -0.001859330597579
35 -0.000000001964286
 Sym=      5.1
 Ene=      -0.3738
 Spin= Alpha
 Occup=    1.867396
1 0.003485486845984
2 -0.11186306497750
3 -0.037626564416655
4 -0.000000199338562
5 -0.000000006201142
6 0.53538813596152
7 -0.000000014047455
8 0.000000000152721
9 0.017356640601328
10 0.011193212522398
11 0.011193211003436
12 -0.022386423525833
13 -0.000000000378198
14 0.000000009887064
15 -0.000000000106126
16 0.080639570872094
17 -0.009850433986780
18 -0.001814610005005
19 -0.001722817311020
20 0.010615172392765
21 0.080639573225967
22 -0.009850424234047
23 -0.000584704493839
24 0.002432902865946
25 0.010615172055130
26 0.080639586383099
27 -0.009850407847057
28 0.002399300960732
29 -0.000710086142657
30 0.010615172265051
31 -0.63119589375905
32 0.001909655006286
33 0.000000001331108
34 -0.000000000175096
35 -0.012570981823266
 Sym=      6.1
 Ene=       0.1772
 Spin= Alpha
 Occup=    0.132604
1 -0.009920186046597
2 -0.30842742306438
3 -0.058507711728693
4 -0.000000268369074
5 -0.000000007326477
6 0.81526976616132
7 -0.000000006467779
8 -0.000000001798613
9 0.000076124331304
10 0.017699947816950
11 0.017699947983901
12 -0.035399895800851
13 0.000000000796075
14 0.000000025361828
15 0.000000000333422
16 0.044088940406120
17 -0.014614504574037
18 0.000485272244593
19 0.000460729109618
20 0.013319848956411
21 0.044088914557174
22 -0.014614500869592
23 0.000156361724347
24 -0.000650628585746
25 0.013319847077912
26 0.044088877198708
27 -0.014614491799375
28 -0.000641651004111
29 0.000189898326409
30 0.013319844481870
31 1.05656647053794
32 -0.18156316973761
33 0.000000001625352
34 -0.000000000049439
35 -0.015696970450976
 Sym=      7.1
 Ene=       0.2014
 Spin= Alpha
 Occup=    0.000000
1 -0.087171685349112
2 0.16014306112738
3 2.08161719163918
4 -0.000000180773312
5 -0.000000014007114
6 0.17305770262086
7 -0.000000285968273
8 -0.000000039042463
9 0.25373229948511
10 0.007569699999878
11 0.007569701748595
12 -0.015139401748473
13 0.000000004555439
14 0.000000012963056
15 -0.000000000208310
16 -0.055551831368517
17 -1.02173962034781
18 0.010922122347077
19 0.010369650868606
20 0.007087424704828
21 -0.055551854056388
22 -1.02173970712534
23 0.003519310795512
24 -0.014643664833065
25 0.007087419367651
26 -0.055551920536330
27 -1.02173985900991
28 -0.014441447921786
29 0.004274014763788
30 0.007087409896181
31 0.11068638419190
32 0.014815885086480
33 0.000000000350710
34 0.000000000221849
35 -0.004688706004001
 Sym=      8.1
 Ene=       0.2663
 Spin= Alpha
 Occup=    0.000000
1 -0.000000012504071
2 0.000000009540375
3 0.000000671605125
4 0.41264205502413
5 -0.19893060311106
6 0.000000178895468
7 1.07705992324298
8 -0.51923976722249
9 0.000000499320008
10 -0.016581220429843
11 0.016581222091275
12 -0.000000001661432
13 0.008412977774209
14 0.016544645903716
15 -0.007976006615350
16 -0.018434209057930
17 -0.74586973711033
18 0.009028264237043
19 0.004658883861380
20 0.001262509722003
21 -0.032924684065641
22 -1.33216850261875
23 0.006356050651567
24 -0.016391864145066
25 0.002254915041877
26 0.051358968158497
27 2.07803733844224
28 0.025922621494277
29 -0.008180680808499
30 -0.003517408674863
31 -0.000000004583322
32 0.000000102748988
33 -0.001651655732991
34 0.000796246014972
35 0.000000000721922
 Sym=      9.1
 Ene=       0.2663
 Spin= Alpha
 Occup=    0.000000
1 -0.000000006083566
2 0.000000015453443
3 0.000000381331096
4 0.19893058155050
5 0.41264202157581
6 0.000000096171659
7 0.51923990336412
8 1.07706007656600
9 0.000000269327994
10 0.007285853593575
11 -0.007285854004469
12 0.000000000410894
13 0.019146351403760
14 0.007976018376466
15 0.016544664875481
16 -0.048661089723561
17 -1.96888394583094
18 0.017934662486288
19 0.018509709900940
20 0.003332666814368
21 0.040295072162481
22 1.63038370577352
23 -0.003116086276814
24 0.021181907426013
25 -0.002759693848034
26 0.008366039481762
27 0.33849974729271
28 0.005095085113311
29 0.001615323396159
30 -0.000572964292568
31 -0.000000004336431
32 0.000000061744912
33 -0.000796246613753
34 -0.001651654199518
35 0.000000000779625
 Sym=     10.1
 Ene=       0.5944
 Spin= Alpha
 Occup=    0.000000
1 0.000000002362415
2 0.000000030138276
3 -0.000000058436913
4 0.069924821472813
5 -0.44006910752445
6 -0.000000047214062
7 -0.24306504312875
8 1.52972157838048
9 0.000000056629819
10 -0.084360251608817
11 0.084360237181792
12 0.000000014427026
13 -0.059722237072892
14 0.007462204776778
15 -0.046963309258613
16 -0.74672102240566
17 0.31987099602882
18 -0.032502012764806
19 0.030679780218648
20 -0.006718825788977
21 1.31480971153243
22 -0.56322216332857
23 0.005123461262767
24 -0.003199871037882
25 0.011830329080459
26 -0.56808892910007
27 0.24335138517901
28 0.015651382832436
29 0.046324588767509
30 -0.005111517667306
31 -0.000000090798070
32 0.000000136316931
33 -0.009623338159398
34 0.060564138153740
35 0.000000006261367
 Sym=     11.1
 Ene=       0.5944
 Spin= Alpha
 Occup=    0.000000
1 0.000000039689118
2 0.000000230639668
3 0.000000092361717
4 -0.44006908505028
5 -0.069924875081193
6 -0.000000327968109
7 1.52972146243583
8 0.24306563770198
9 0.000001524173833
10 0.051721081175189
11 -0.051720997673454
12 -0.000000083501735
13 -0.097410802611649
14 -0.046963274940271
15 -0.007462274428382
16 -1.08709207520475
17 0.46567474825167
18 0.018523195939273
19 -0.024683907653388
20 -0.009781408153192
21 -0.10313348514607
22 0.044179091578849
23 0.052402871773315
24 0.012941595857764
25 -0.000927976066273
26 1.19022535123535
27 -0.50985477710354
28 0.002878442756831
29 0.023469499808710
30 0.010709327208444
31 -0.000001682616636
32 0.000002668346105
33 0.060564135145702
34 0.009623357679891
35 0.000000003415739
 Sym=     12.1
 Ene=       0.6096
 Spin= Alpha
 Occup=    0.000000
1 0.10318925205735
2 0.47864852161877
3 -0.65740060388279
4 0.000000430574396
5 0.000000090544540
6 -0.29093839169361
7 -0.000001627808339
8 -0.000000339738199
9 0.96211531718634
10 0.028493320195116
11 0.028493435745194
12 -0.056986755940310
13 0.000000117641054
14 0.000000063414481
15 0.000000011021196
16 -0.042003326138343
17 -0.14421830867595
18 -0.002090517444495
19 -0.001984733021741
20 -0.038567763077100
21 -0.042004427001389
22 -0.14421783047309
23 -0.000673658360525
24 0.002802808854552
25 -0.038567777471940
26 -0.042005563853679
27 -0.14421732137838
28 0.002764146310753
29 -0.000818091828248
30 -0.038567793585880
31 -1.76189734706371
32 2.65058805657391
33 -0.000000060718654
34 -0.000000014450210
35 -0.003922909678490
 Sym=     13.1
 Ene=       0.6912
 Spin= Alpha
 Occup=    0.000000
1 -0.067634744674566
2 -0.035990381424793
3 0.58183237843517
4 0.000000134015205
5 0.000000047383255
6 -0.81727588724606
7 0.000000035319306
8 -0.000000174607706
9 1.31340002571241
10 -0.10588873419821
11 -0.10588871110948
12 0.21177744530769
13 0.000000016893443
14 -0.000000104680725
15 0.000000005257672
16 -0.85072094144677
17 0.51806346907687
18 -0.041084939910897
19 -0.039006733769345
20 -0.005534976640161
21 -0.85072118062342
22 0.51806377874999
23 -0.013238344777105
24 0.055083976184156
25 -0.005534959252912
26 -0.85072116453952
27 0.51806439959522
28 0.054323324348908
29 -0.016077250862255
30 -0.005534917617347
31 0.52194726039323
32 -0.34650749419092
33 -0.000000010870419
34 -0.000000007842509
35 0.12338603257118
 Sym=     14.1
 Ene=       0.8626
 Spin= Alpha
 Occup=    0.000000
1 0.15293592979751
2 0.93029566266355
3 -1.56449728229069
4 -0.000004370622886
5 -0.000000180091422
6 1.12313670079701
7 0.000007573787163
8 0.000000276232622
9 -1.49326709738084
10 -0.085678238685739
11 -0.085677212936092
12 0.17135545162183
13 0.000000728996865
14 0.000000200162698
15 0.000000017137985
16 -0.69929839304265
17 0.94664085603000
18 -0.11854838236309
19 -0.11255158387058
20 -0.001410051517785
21 -0.69929964744724
22 0.94664439511173
23 -0.038198841273325
24 0.15894203901514
25 -0.001410142244017
26 -0.69930200017677
27 0.94665158743118
28 0.15674805172546
29 -0.046390425741472
30 -0.001410313544972
31 -0.48765953988378
32 0.025987465629560
33 0.000000078899176
34 -0.000000001287247
35 0.022452504037387
 Sym=     15.1
 Ene=       0.8801
 Spin= Alpha
 Occup=    0.000000
1 0.000000376031096
2 0.000002407482179
3 -0.000004295712520
4 1.08606396869416
5 -0.62643812513824
6 0.000003227121374
7 -1.97136060238883
8 1.13707429721643
9 -0.000004502322231
10 0.25674755689870
11 -0.25674800789688
12 0.000000450998183
13 -0.10488490776287
14 -0.10153698314405
15 0.058566217335485
16 -0.17544372338757
17 0.56826716543938
18 -0.004468340496812
19 -0.10772437251363
20 -0.019598460065312
21 -0.42487792918230
22 1.37619671893224
23 0.011407468257404
24 0.19555048143383
25 -0.047462519106475
26 0.60031597521405
27 -1.94445614357116
28 -0.25917286674969
29 0.057661475923041
30 0.067060837800824
31 -0.000001380872205
32 0.000000168762410
33 -0.021367487855625
34 0.012324697836851
35 0.000000064053159
 Sym=     16.1
 Ene=       0.8801
 Spin= Alpha
 Occup=    0.000000
1 -0.000000232037663
2 -0.000001503089235
3 0.000002691749224
4 -0.62643805377452
5 -1.08606383196806
6 -0.000002057350669
7 1.13707428411198
8 1.97136050710397
9 0.000002862625024
10 0.090833144506141
11 -0.090832862391678
12 -0.000000282114463
13 0.29646680188031
14 0.058566336083295
15 0.10153725583986
16 0.59189715834774
17 -1.91718161611196
18 0.20471601176050
19 0.16368804858836
20 0.066120267227581
21 -0.44788385718000
22 1.45071998520377
23 -0.098558226048678
24 0.17956312866515
25 -0.050032871305984
26 -0.14400972917343
27 0.46645676587564
28 0.039329845691659
29 -0.091017381235537
30 -0.016087304642385
31 0.000000898110573
32 -0.000000125113448
33 0.012324696145028
34 0.021367488863359
35 -0.000000038019082
 Sym=     17.1
 Ene=       1.1429
 Spin= Alpha
 Occup=    0.000000
1 -0.77649070828341
2 -3.46506049095004
3 5.71588480507589
4 0.000000107470806
5 -0.000000001810868
6 0.39687207906531
7 -0.000000102997485
8 -0.000000045517093
9 -0.19299076786053
10 -0.021403107022194
11 -0.021402855618066
12 0.042805962640260
13 0.000000160058987
14 -0.000000365434953
15 0.000000075569989
16 -0.32710766034119
17 -0.62310878227489
18 0.090408552127912
19 0.085835570048620
20 0.050361834370695
21 -0.32710768221072
22 -0.62310866714855
23 0.029131215110787
24 -0.12121395655161
25 0.050361810697244
26 -0.32710758869714
27 -0.62310856308469
28 -0.11954002318660
29 0.035378409903003
30 0.050362009311508
31 -0.75335690930552
32 0.43721343057631
33 0.000000136190183
34 -0.000000030838650
35 0.17262154707387
 Sym=     18.1
 Ene=       1.1667
 Spin= Alpha
 Occup=    0.000000
1 0.000000451281498
2 0.000002038714881
3 -0.000003355704517
4 0.10898750612591
5 -0.010135366844957
6 -0.000000214508246
7 -0.060583602282109
8 0.005634026362925
9 0.000000090468251
10 -0.13761632016289
11 0.13761668983798
12 -0.000000369675094
13 0.15423906871152
14 -0.56269039138029
15 0.052327792855874
16 -0.057950074378331
17 0.062677261987782
18 -0.085960986432146
19 0.12594613939272
20 -0.21494972671181
21 -0.028405851625929
22 0.030723317697626
23 -0.18124212324029
24 -0.055847508067098
25 -0.10536413483387
26 0.086356495488891
27 -0.093399451020812
28 0.023836429841976
29 -0.047466623541975
30 0.32031377866336
31 0.000000576670818
32 -0.000000377583648
33 0.22213688236185
34 -0.020657771840957
35 -0.000000194092353
 Sym=     19.1
 Ene=       1.1667
 Spin= Alpha
 Occup=    0.000000
1 -0.000000055876122
2 -0.000000244716793
3 0.000000397303254
4 0.010135343695274
5 0.10898747288545
6 0.000000034419043
7 -0.005633982231014
8 -0.060583559586596
9 -0.000000025550126
10 0.13357497112842
11 -0.13357495377798
12 -0.000000017350436
13 0.15890631628841
14 -0.052327646288539
15 -0.56269027847491
16 -0.066258132136759
17 0.071662293863999
18 0.11085827385938
19 -0.076283420433771
20 -0.24576512248132
21 0.083315413159029
22 -0.090110967115989
23 -0.070935755456301
24 0.018997683700547
25 0.30903448334124
26 -0.017057364629986
27 0.018448559277119
28 -0.062554567459575
29 -0.18608096139359
30 -0.063269323343892
31 -0.000000051827551
32 0.000000029670597
33 0.020657726755078
34 0.22213685684180
35 0.000000008065130
 Sym=     20.1
 Ene=       1.5457
 Spin= Alpha
 Occup=    0.000000
1 -0.44666388831960
2 -1.68994353685682
3 3.27963983927846
4 -0.000000984965086
5 -0.000000082370982
6 0.083012278917720
7 0.000000183035825
8 -0.000000008934107
9 0.14726783344959
10 0.31797547832541
11 0.31797466324560
12 -0.63595014157101
13 -0.000000657335421
14 -0.000000044463331
15 -0.000000034474152
16 -0.95373145305404
17 0.20888847954151
18 -0.007572290889925
19 -0.007190366678925
20 -0.19414210280199
21 -0.95373260050280
22 0.20888938316461
23 -0.002439064779651
24 0.010154070078587
25 -0.19414080403024
26 -0.95373449645464
27 0.20889092638015
28 0.010014711950488
29 -0.002963456906441
30 -0.19413870216007
31 0.23574393296393
32 -0.47693610584560
33 -0.000004732232383
34 -0.000000451847050
35 -0.52449711865460
 Sym=     21.1
 Ene=       1.5550
 Spin= Alpha
 Occup=    0.000000
1 -0.000002566128212
2 -0.000009659432035
3 0.000018806230069
4 0.17658398787333
5 0.044177895125152
6 0.000000449475021
7 -0.057465864449385
8 -0.014376931745852
9 0.000000911255273
10 -0.048451525137399
11 0.048455154511889
12 -0.000003629374489
13 0.11224133525695
14 0.070504468547669
15 0.017638837158787
16 -0.24905571427412
17 0.18332776394727
18 -0.16852065658269
19 -0.023328792646168
20 0.30603713252839
21 0.002652157557909
22 -0.001955141201219
23 -0.19554485536373
24 -0.048512910135340
25 -0.003267165324752
26 0.24638690365437
27 -0.18136881153023
28 -0.16022234241869
29 -0.059324887262353
30 -0.30277363676288
31 0.000001450584388
32 -0.000002862128412
33 0.79213380334179
34 0.19817640658047
35 -0.000003002544756
 Sym=     22.1
 Ene=       1.5550
 Spin= Alpha
 Occup=    0.000000
1 0.000000392360618
2 0.000001475501009
3 -0.000002877971671
4 -0.044177836222033
5 0.17658402534019
6 -0.000000071698344
7 0.014376779372033
8 -0.057466026865122
9 -0.000000136820448
10 0.097203590739330
11 -0.097204148793523
12 0.000000558054193
13 0.055948925893838
14 -0.017638839093071
15 0.070504456160985
16 -0.14071931018194
17 0.10358436724273
18 0.064115494782488
19 -0.18100473516917
20 0.17292035622156
21 0.28604467933747
22 -0.21055786070556
23 0.038931529028422
24 -0.15398031195913
25 -0.35149687248594
26 -0.14532281328172
27 0.10697290408709
28 0.028119519450976
29 -0.18930277502286
30 0.17857708566591
31 -0.000000225644238
32 0.000000443419900
33 -0.19817638443682
34 0.79213384363981
35 0.000000449702164
 Sym=     23.1
 Ene=       1.6297
 Spin= Alpha
 Occup=    0.000000
1 0.000000000196076
2 0.000000000715561
3 -0.000000001272289
4 -0.000000045776396
5 -0.000000090339362
6 -0.000000000123995
7 0.000000160840865
8 0.000000141086223
9 -0.000000000015339
10 -0.000000024213519
11 0.000000024163544
12 0.000000000049976
13 0.000000039084811
14 0.000000025840491
15 -0.000000010584266
16 -0.000000084023236
17 -0.000000051164254
18 -0.41084758080473
19 0.43273689538518
20 -0.000000182040416
21 -0.000000039963630
22 0.000000089608131
23 0.58018490714072
24 0.13943605926374
25 0.000000235603555
26 0.000000125429252
27 -0.000000039153867
28 -0.16933734814590
29 -0.57217293372482
30 -0.000000052869776
31 -0.000000000401369
32 0.000000000626821
33 -0.000000154956573
34 -0.000000102952963
35 0.000000000182574
 Sym=     24.1
 Ene=       1.8214
 Spin= Alpha
 Occup=    0.000000
1 -0.000000029650927
2 -0.000000002797659
3 0.000000430146100
4 -0.16498602851931
5 0.060491981373787
6 -0.000000056130422
7 1.16450286094622
8 -0.42696379729394
9 0.000000488634757
10 -0.32951743659111
11 0.32951726359576
12 0.000000172995356
13 0.21373023611249
14 0.14998584429156
15 -0.054992131486676