
 Primary working directories    : /data/scratch
 Secondary working directories  : /data/scratch
 Wavefunction directory         : /home/carlo/wfu/
 Main file repository           : /data/scratch/

 ARCHNAME  : Linux/x86_64
 FC        : /opt/intel/composer_xe_2013_sp1.1.106/bin/intel64/ifort
 FCVERSION : 14.0.1
 BLASLIB   : -Wl,-_start-group /opt/intel/mkl/lib/intel64/libmkl_intel_ilp64.a /opt/intel/mkl/lib/intel64/libmkl_sequential.a /opt/intel/mkl/lib/intel64/libmkl_core.a -Wl,-_end-group
 id        : polimi

 Nodes     nprocs
 tt116        4
 ga_uses_ma=false, calling ma_init with nominal heap.
 GA-space will be limited to   8.0 MW (determined by -G option)

 Using customized tuning parameters: mindgm=16; mindgv=24; mindgc=8; mindgr=1; noblas=0; mincuda=1000; minvec=7
 default implementation of scratch files=sf  

  memory,        1000 ,m
  memory,500,m
  geometry={angstrom
   c1
   h2 c1 rch1
   h3 c1 rch2 h2 ahcc1
   h4 c1 rch3 h2 ahcc2 h3 b1
   h5 c1 rch4 h2 ahcc3 h3 b2
  }
  RCH1                           =    1.0870000000000000
  RCH2                           =    1.0869000000000000
  RCH3                           =    1.0870000000000000
  RCH4                           =    1.0870000000000000
  AHCC1                          =    109.46850000000001
  AHCC2                          =    109.45970000000000
  AHCC3                          =    109.45970000000000
  B1                             =    120.00170000000000
  B2                             =   -120.00170000000000
 
  SET,SPIN=           0
 
                                                                                 !closed shell input
  basis=aug-cc-pvtz
  hf
  ccsd(t)
  en_cc=energy
 
  gdirect
  basis=aug-cc-pvtz
  hf
  df-mp2
  en_mp2_tz=energy
 
  basis=aug-cc-pvqz
  hf
  df-mp2
  en_mp2_qz=energy
  put,molden,molpro.molden
 
  CBSen = en_cc+en_mp2_qz-en_mp2_tz
 

 Variables initialized (661), CPU time= 0.01 sec
 Commands  initialized (458), CPU time= 0.01 sec, 486 directives.
 Default parameters read. Elapsed time= 0.05 sec

 Checking input...
 Passed
1


                                         ***  PROGRAM SYSTEM MOLPRO  ***
                         Copyright, University College Cardiff Consultants Limited, 2008

                                    Version 2010.1 linked Nov 28 2013 00:29:07


 **********************************************************************************************************************************
 LABEL *                                                                                 
 Linux-2.6.34-12-desktop/tt116(x86_64) 64 bit mpp version                                DATE: 17-Jan-18          TIME: 17:22:47  
 **********************************************************************************************************************************

 SHA1:             3e0dedb5ca8b4ac28d83a6c404202848d09e924a
 **********************************************************************************************************************************

 Turning off symmetry in density fitting calculation
 To re-enable, use 'set,zsymel=auto'

 SETTING RCH1           =         1.08700000                                  
 SETTING RCH2           =         1.08690000                                  
 SETTING RCH3           =         1.08700000                                  
 SETTING RCH4           =         1.08700000                                  
 SETTING AHCC1          =       109.46850000                                  
 SETTING AHCC2          =       109.45970000                                  
 SETTING AHCC3          =       109.45970000                                  
 SETTING B1             =       120.00170000                                  
 SETTING B2             =      -120.00170000                                  
 SETTING SPIN           =         0.00000000                                  

 Variable memory set to  500000000 words,  buffer space   230000 words

 SETTING BASIS          =    AUG-CC-PVTZ


 Recomputing integrals since basis changed


 Using spherical harmonics

 Library entry C      S aug-cc-pVTZ          selected for orbital group  1
 Library entry C      P aug-cc-pVTZ          selected for orbital group  1
 Library entry C      D aug-cc-pVTZ          selected for orbital group  1
 Library entry C      F aug-cc-pVTZ          selected for orbital group  1
 Library entry H      S aug-cc-pVTZ          selected for orbital group  2
 Library entry H      P aug-cc-pVTZ          selected for orbital group  2
 Library entry H      D aug-cc-pVTZ          selected for orbital group  2

1PROGRAM * SEWARD (Integral evaluation for generally contracted gaussian basis sets)     Author: Roland Lindh, 1990

 Geometry written to block  1 of record 700

 Orientation using atomic masses  
 Molecule type: Asymmetric top
 Rotational constants:     159.1408923    159.1234270    159.1505267 GHz  (calculated with average atomic masses)

 Point group  C1  



 ATOMIC COORDINATES

 NR  ATOM    CHARGE       X              Y              Z

   1  C1      6.00    0.000032992   -0.000054148    0.000000000
   2  H2      1.00   -0.323490137    2.028440937    0.000000000
   3  H3      1.00    2.020189300   -0.371068576    0.000000000
   4  H4      1.00   -0.848546157   -0.828363557    1.677282468
   5  H5      1.00   -0.848546157   -0.828363557   -1.677282468

 Bond lengths in Bohr (Angstrom)

 1-2  2.054132305  1-3  2.053943332  1-4  2.054132305  1-5  2.054132305
     ( 1.087000000)     ( 1.086900000)     ( 1.087000000)     ( 1.087000000)

 Bond angles

  2-1-3  109.46850000   2-1-4  109.45970000   2-1-5  109.45970000   3-1-4  109.47972873

  3-1-5  109.47972873   4-1-5  109.47996211

 NUCLEAR CHARGE:                   10
 NUMBER OF PRIMITIVE AOS:         175
 NUMBER OF SYMMETRY AOS:          158
 NUMBER OF CONTRACTIONS:          138   ( 138A   )
 NUMBER OF CORE ORBITALS:           1   (   1A   )
 NUMBER OF VALENCE ORBITALS:        8   (   8A   )


 NUCLEAR REPULSION ENERGY   13.47277930


 Eigenvalues of metric

         1 0.810E-04 0.117E-03 0.117E-03 0.117E-03 0.887E-03 0.887E-03 0.887E-03 0.996E-03


 Contracted 2-electron integrals neglected if value below      1.0D-11
 AO integral compression algorithm  1   Integral accuracy      1.0D-11

     217.580 MB (compressed) written to integral file ( 48.9%)

     Node minimum: 51.118 MB, node maximum: 56.623 MB


 NUMBER OF SORTED TWO-ELECTRON INTEGRALS:   11496012.     BUFFER LENGTH:  32768
 NUMBER OF SEGMENTS:   1  SEGMENT LENGTH:   11496012      RECORD LENGTH: 524288

 Memory used in sort:      12.05 MW

 SORT1 READ    55731597. AND WROTE    10178461. INTEGRALS IN     30 RECORDS. CPU TIME:     0.73 SEC, REAL TIME:     0.91 SEC
 SORT2 READ    40709551. AND WROTE    45998436. INTEGRALS IN    864 RECORDS. CPU TIME:     0.25 SEC, REAL TIME:     0.35 SEC

 Node minimum:    11496012.  Node maximum:    11503206. integrals

 OPERATOR DM      FOR CENTER  0  COORDINATES:    0.000000    0.000000    0.000000


 **********************************************************************************************************************************
 DATASETS  * FILE   NREC   LENGTH (MB)   RECORD NAMES
              1      18        3.32       500      610      700      900      950      970     1000      129      960     1100   
                                          VAR    BASINP    GEOM    SYMINP    ZMAT    AOBASIS   BASIS     P2S    ABASIS      S 
                                         1400     1410     1200     1210     1080     1600     1650     1700   
                                           T        V       H0       H01     AOSYM     SMH    MOLCAS    OPER   

 PROGRAMS   *        TOTAL       INT
 CPU TIMES  *         1.67      1.58
 REAL TIME  *         3.30 SEC
 DISK USED  *       705.04 MB      
 GA USED    *         0.00 MB       (max)       0.00 MB       (current)
 **********************************************************************************************************************************

1PROGRAM * RHF-SCF (CLOSED SHELL)       Authors: W. Meyer, H.-J. Werner


 NUMBER OF ELECTRONS:       5+    5-    SPACE SYMMETRY=1    SPIN SYMMETRY: Singlet 
 CONVERGENCE THRESHOLDS:    1.00E-05 (Density)    1.00E-07 (Energy)
 MAX. NUMBER OF ITERATIONS:       60
 INTERPOLATION TYPE:            DIIS
 INTERPOLATION STEPS:              2 (START)      1 (STEP)
 LEVEL SHIFTS:                  0.00 (CLOSED)  0.00 (OPEN) 



 Orbital guess generated from atomic densities. Full valence occupancy:    9

 Molecular orbital dump at record        2100.2

 ITERATION    DDIFF          GRAD             ENERGY        2-EL.EN.            DIPOLE MOMENTS         DIIS
    1      0.000D+00      0.000D+00       -40.19490363     53.062112   -0.00010    0.00013   -0.00000    0
    2      0.000D+00      0.232D-02       -40.21117514     51.848773    0.00001    0.00003   -0.00000    1
    3      0.511D-02      0.909D-03       -40.21332090     52.287284    0.00000    0.00005   -0.00000    2
    4      0.142D-02      0.233D-03       -40.21363326     52.229344    0.00001    0.00004    0.00000    3
    5      0.478D-03      0.304D-04       -40.21363868     52.231817    0.00001    0.00004   -0.00000    4
    6      0.126D-03      0.235D-05       -40.21363872     52.231927    0.00001    0.00004   -0.00000    5
    7      0.100D-04      0.180D-06       -40.21363872     52.231894    0.00001    0.00004   -0.00000    5
    8      0.154D-05      0.396D-07       -40.21363872     52.231891    0.00001    0.00004   -0.00000    0

 Final occupancy:   5

 !RHF STATE 1.1 Energy                -40.213638722901
 Nuclear energy                        13.47277930
 One-electron energy                  -79.80236339
 Two-electron energy                   26.11594537
 Virial quotient                       -1.00119196
 !RHF STATE 1.1 Dipole moment           0.00001283     0.00004137    -0.00000000
 Dipole moment /Debye                   0.00003261     0.00010515    -0.00000000

 Orbital energies:

         1.1          2.1          3.1          4.1          5.1          6.1          7.1
    -11.205797    -0.943606    -0.545314    -0.545286    -0.545233     0.030803     0.050458


 **********************************************************************************************************************************
 DATASETS  * FILE   NREC   LENGTH (MB)   RECORD NAMES
              1      18        3.32       500      610      700      900      950      970     1000      129      960     1100   
                                          VAR    BASINP    GEOM    SYMINP    ZMAT    AOBASIS   BASIS     P2S    ABASIS      S 
                                         1400     1410     1200     1210     1080     1600     1650     1700   
                                           T        V       H0       H01     AOSYM     SMH    MOLCAS    OPER   

              2       3        0.71       700     1000     2100   
                                         GEOM     BASIS     RHF  

 PROGRAMS   *        TOTAL        HF       INT
 CPU TIMES  *         2.72      1.05      1.58
 REAL TIME  *         5.10 SEC
 DISK USED  *       730.30 MB      
 SF USED    *         0.08 MB      
 GA USED    *         0.00 MB       (max)       0.00 MB       (current)
 **********************************************************************************************************************************


1PROGRAM * CCSD (Closed-shell coupled cluster)     Authors: C. Hampel, H.-J. Werner, 1991, M. Deegan, P.J. Knowles, 1992


 Convergence thresholds:  THRVAR = 1.00D-08  THRDEN = 1.00D-06

 CCSD(T)     terms to be evaluated (factor= 1.000)


 Number of core orbitals:           1 (   1 )
 Number of closed-shell orbitals:   4 (   4 )
 Number of external orbitals:     133 ( 133 )

 Molecular orbitals read from record     2100.2  Type=RHF/CANONICAL (state 1.1)

 Number of N-1 electron functions:               4
 Number of N-2 electron functions:              10
 Number of singly external CSFs:               532
 Number of doubly external CSFs:            141778
 Total number of CSFs:                      142311

 Length of J-op  integral file:               0.00 MB
 Length of K-op  integral file:               1.32 MB
 Length of 3-ext integral record:             0.00 MB

 Memory could be reduced to 16.11 Mwords without degradation in triples

 Integral transformation finished. Total CPU:   1.06 sec, npass=  1  Memory used:   7.33 MW

 Reference energy:                    -40.21363872

 MP2 singlet pair energy:              -0.14587544
 MP2 triplet pair energy:              -0.05494335
 MP2 correlation energy:               -0.20081879
 MP2 total energy:                    -40.41445751

 SCS-MP2 correlation energy:           -0.20923750   (PS=  1.200000  PT=  0.333333)
 SCS-MP2 total energy:                -40.42287622

 ITER.      SQ.NORM     CORR.ENERGY   TOTAL ENERGY   ENERGY CHANGE        DEN1      VAR(S)    VAR(P)  DIIS     TIME
   1      1.07232805    -0.21951026   -40.43314899    -0.01869147    -0.01308261  0.48D-03  0.11D-02  1  1     1.39
   2      1.07809105    -0.22066064   -40.43429936    -0.00115038    -0.00583753  0.14D-04  0.77D-04  2  2     1.75
   3      1.07941432    -0.22072217   -40.43436089    -0.00006153    -0.00083096  0.16D-05  0.53D-05  3  3     2.11
   4      1.07974348    -0.22073197   -40.43437069    -0.00000980    -0.00013840  0.87D-07  0.25D-06  4  4     2.47
   5      1.07979239    -0.22073114   -40.43436986     0.00000083    -0.00001958  0.56D-08  0.18D-07  5  5     2.82
   6      1.07979789    -0.22073026   -40.43436898     0.00000088    -0.00000200  0.40D-09  0.12D-08  6  6     3.17

 Norm of t1 vector:      0.03003298      S-energy:    -0.00000039      T1 diagnostic:  0.00750824
                                                                       D1 diagnostic:  0.01201213


 Total CPU time for triples:      2.52 sec


 RESULTS
 =======

  Reference energy                    -40.213638722901
  CCSD singlet pair energy             -0.167504860847
  CCSD triplet pair energy             -0.053225005205
  CCSD correlation energy              -0.220730259334

  Triples (T) contribution             -0.006539685757
  Total correlation energy             -0.227269945092

  CCSD total energy                   -40.434368982235
  CCSD[T] energy                      -40.441103031299
  CCSD-T energy                       -40.440835529282
 !CCSD(T) total energy                -40.440908667992

 Timing summary (sec):

 STEP                 CPU(USER)    SYS     CPU(TOT)    WALL
 Transformation          1.07      0.07      1.14      1.24
 CCSD iterations         2.10      0.12      2.22      2.98
 Triples                 2.52      0.02      2.54      2.64

 Program statistics:

 Available memory in ccsd:               499999836
 Min. memory needed in ccsd:                662214
 Max. memory used in ccsd:                  762908
 Max. memory used in cckext:                527043 ( 6 integral passes)



 **********************************************************************************************************************************
 DATASETS  * FILE   NREC   LENGTH (MB)   RECORD NAMES
              1      19       43.86       500      610      700      900      950      970     1000      129      960     1100   
                                          VAR    BASINP    GEOM    SYMINP    ZMAT    AOBASIS   BASIS     P2S    ABASIS      S 
                                         1400     1410     1200     1210     1080     1600     1650     1700     1380   
                                           T        V       H0       H01     AOSYM     SMH    MOLCAS    OPER     JKOP   

              2       3        0.71       700     1000     2100   
                                         GEOM     BASIS     RHF  

 PROGRAMS   *        TOTAL   CCSD(T)        HF       INT
 CPU TIMES  *         8.44      5.72      1.05      1.58
 REAL TIME  *        12.23 SEC
 DISK USED  *       785.87 MB      
 SF USED    *        54.92 MB      
 GA USED    *         0.00 MB       (max)       0.00 MB       (current)
 **********************************************************************************************************************************
 SETTING EN_CC          =       -40.44090867  AU                              
 SETTING BASIS          =    AUG-CC-PVTZ

1PROGRAM * RHF-SCF (CLOSED SHELL)       Authors: W. Meyer, H.-J. Werner


 NUMBER OF ELECTRONS:       5+    5-    SPACE SYMMETRY=1    SPIN SYMMETRY: Singlet 
 CONVERGENCE THRESHOLDS:    1.00E-05 (Density)    1.00E-07 (Energy)
 INTEGRAL THRESHOLDS:       1.00E-11 (Initial)    1.00E-11 (Final)
 MAX. NUMBER OF ITERATIONS:       60
 INTERPOLATION TYPE:            DIIS
 INTERPOLATION STEPS:              2 (START)      1 (STEP)
 LEVEL SHIFTS:                  0.00 (CLOSED)  0.00 (OPEN) 



 Molecular orbitals read from record     2100.2  Type=RHF/CANONICAL (state 1.1)

 Molecular orbital dump at record        2101.2

 Direct Fock-matrix evaluation.        Authors: Roland Lindh & Martin Schuetz (1993/96)

 Integral Threshold:                  0.1D-10
 Threshold for writing integrals:     0.1D-06
 Prescreening on density matrix:        ON 
 Calculation will be performed fully direct        

 ITERATION   DDIFF            GRAD            ENERGY        2-EL.EN.            DIPOLE MOMENTS         DIIS   CPU(IT)  CPU(TOT)
    1      0.000D+00      0.000D+00       -40.21363872     52.231891    0.00001    0.00004   -0.00000    0      1.7      1.7   diag  
    2      0.000D+00      0.237D-06       -40.21363872     52.231892    0.00001    0.00004    0.00000    0      1.3      3.0   orth  

 Final occupancy:   5

 !RHF STATE 1.1 Energy                -40.213638723034
 Nuclear energy                        13.47277930
 One-electron energy                  -79.80236398
 Two-electron energy                   26.11594596
 Virial quotient                       -1.00119195
 !RHF STATE 1.1 Dipole moment           0.00001284     0.00004137     0.00000000
 Dipole moment /Debye                   0.00003262     0.00010514     0.00000000

 Orbital energies:

         1.1          2.1          3.1          4.1          5.1          6.1          7.1
    -11.205797    -0.943606    -0.545313    -0.545286    -0.545233     0.030803     0.050458


 **********************************************************************************************************************************
 DATASETS  * FILE   NREC   LENGTH (MB)   RECORD NAMES
              1      19       43.86       500      610      700      900      950      970     1000      129      960     1100   
                                          VAR    BASINP    GEOM    SYMINP    ZMAT    AOBASIS   BASIS     P2S    ABASIS      S 
                                         1400     1410     1200     1210     1080     1600     1650     1700     1380   
                                           T        V       H0       H01     AOSYM     SMH    MOLCAS    OPER     JKOP   

              2       4        1.51       700     1000     2100     2101   
                                         GEOM     BASIS     RHF      RHF  

 PROGRAMS   *        TOTAL        HF   CCSD(T)        HF       INT
 CPU TIMES  *        11.41      2.97      5.72      1.05      1.58
 REAL TIME  *        16.65 SEC
 DISK USED  *       785.87 MB      
 SF USED    *        54.92 MB      
 GA USED    *         0.00 MB       (max)       0.00 MB       (current)
 **********************************************************************************************************************************


1PROGRAM * MP2 (Closed-shell)     Authors: C. Hampel, H.-J. Werner, 1991, M. Deegan, P.J. Knowles, 1992

 Basis set AUG-CC-PVTZ/MP2FIT generated. Number of basis functions:   290 

 Convergence thresholds:  THRVAR = 1.00D-08  THRDEN = 1.00D-06

 Number of core orbitals:           1 (   1 )
 Number of closed-shell orbitals:   4 (   4 )
 Number of external orbitals:     133 ( 133 )

 Molecular orbitals read from record     2101.2  Type=RHF/CANONICAL (state 1.1)
 

 Entering DF-MP2

 Thresholds:    THRAO= 0.100D-09    THRMO= 0.100D-08    THROV= 0.100D-11    THRPROD= 0.100D-08

 Fitting basis: AUG-CC-PVTZ-MP2F
 Number of fitting functions:              290

 Minimum memory with paging:              1.90 MW
 Minimum memory for incore algorithm:     2.04 MW
 Memory for 3-index integrals:            0.00 MW

 Disk space for H1-integrals:             1.29 MB (   1 records)

 SCS-MP2 correlation energy:           -0.209198255114   (PS=  1.200000  PT=  0.333333)
 SCS-MP2 total energy:                -40.422836978149

 Norm of first-order wave function:     0.049322429474
 Coefficient of reference function:     0.976215102151

  Reference energy                    -40.213638723034
  MP2 singlet pair energy              -0.145835020607
  MP2 triplet pair energy              -0.054958227406
  MP2 correlation energy               -0.200793248013

 !MP2 total energy                    -40.414431971047


 **********************************************************************************************************************************
 DATASETS  * FILE   NREC   LENGTH (MB)   RECORD NAMES
              1      20       43.86       500      610      700      900      950      970     1000      129      960     1100   
                                          VAR    BASINP    GEOM    SYMINP    ZMAT    AOBASIS   BASIS     P2S    ABASIS      S 
                                         1400     1410     1200     1210     1080     1600     1650     1700     1380      960(1)
                                           T        V       H0       H01     AOSYM     SMH    MOLCAS    OPER     JKOP    ABASIS    

              2       4        1.51       700     1000     2100     2101   
                                         GEOM     BASIS     RHF      RHF  

 PROGRAMS   *        TOTAL       MP2        HF   CCSD(T)        HF       INT
 CPU TIMES  *        11.61      0.20      2.97      5.72      1.05      1.58
 REAL TIME  *        17.37 SEC
 DISK USED  *       785.87 MB      
 SF USED    *        54.92 MB      
 GA USED    *         0.00 MB       (max)       0.00 MB       (current)
 **********************************************************************************************************************************
 SETTING EN_MP2_TZ      =       -40.41443197  AU                              
 SETTING BASIS          =    AUG-CC-PVQZ


 Recomputing integrals since basis changed


 Using spherical harmonics

 Library entry C      S aug-cc-pVQZ          selected for orbital group  1
 Library entry C      P aug-cc-pVQZ          selected for orbital group  1
 Library entry C      D aug-cc-pVQZ          selected for orbital group  1
 Library entry C      F aug-cc-pVQZ          selected for orbital group  1
 Library entry C      G aug-cc-pVQZ          selected for orbital group  1
 Library entry H      S aug-cc-pVQZ          selected for orbital group  2
 Library entry H      P aug-cc-pVQZ          selected for orbital group  2
 Library entry H      D aug-cc-pVQZ          selected for orbital group  2
 Library entry H      F aug-cc-pVQZ          selected for orbital group  2

1PROGRAM * SEWARD (Integral evaluation for generally contracted gaussian basis sets)     Author: Roland Lindh, 1990

 Geometry written to block  1 of record 700

 Orientation using atomic masses  
 Molecule type: Asymmetric top
 Rotational constants:     159.1408923    159.1234270    159.1505267 GHz  (calculated with average atomic masses)

 Point group  C1  



 ATOMIC COORDINATES

 NR  ATOM    CHARGE       X              Y              Z

   1  C1      6.00    0.000032992   -0.000054148    0.000000000
   2  H2      1.00   -0.323490137    2.028440937    0.000000000
   3  H3      1.00    2.020189300   -0.371068576    0.000000000
   4  H4      1.00   -0.848546157   -0.828363557    1.677282468
   5  H5      1.00   -0.848546157   -0.828363557   -1.677282468

 Bond lengths in Bohr (Angstrom)

 1-2  2.054132305  1-3  2.053943332  1-4  2.054132305  1-5  2.054132305
     ( 1.087000000)     ( 1.086900000)     ( 1.087000000)     ( 1.087000000)

 Bond angles

  2-1-3  109.46850000   2-1-4  109.45970000   2-1-5  109.45970000   3-1-4  109.47972873

  3-1-5  109.47972873   4-1-5  109.47996211

 NUCLEAR CHARGE:                   10
 NUMBER OF PRIMITIVE AOS:         346
 NUMBER OF SYMMETRY AOS:          285
 NUMBER OF CONTRACTIONS:          264   ( 264A   )
 NUMBER OF CORE ORBITALS:           1   (   1A   )
 NUMBER OF VALENCE ORBITALS:        8   (   8A   )


 NUCLEAR REPULSION ENERGY   13.47277930


 Eigenvalues of metric

         1 0.184E-04 0.439E-04 0.439E-04 0.439E-04 0.110E-03 0.176E-03 0.176E-03 0.176E-03


 OPERATOR DM      FOR CENTER  0  COORDINATES:    0.000000    0.000000    0.000000


 **********************************************************************************************************************************
 DATASETS  * FILE   NREC   LENGTH (MB)   RECORD NAMES
              1      18        5.20       500      610      700      900      950      970     1001      129      960     1100   
                                          VAR    BASINP    GEOM    SYMINP    ZMAT    AOBASIS   BASIS     P2S    ABASIS      S 
                                         1400     1410     1200     1210     1080     1600     1650     1700   
                                           T        V       H0       H01     AOSYM     SMH    MOLCAS    OPER   

              2       5        1.94       700     1000     2100     2101     1001   
                                         GEOM     BASIS     RHF      RHF     BASIS   

 PROGRAMS   *        TOTAL       INT       MP2        HF   CCSD(T)        HF       INT
 CPU TIMES  *        11.71      0.09      0.20      2.97      5.72      1.05      1.58
 REAL TIME  *        18.08 SEC
 DISK USED  *       903.93 MB      
 SF USED    *        54.92 MB      
 GA USED    *         0.00 MB       (max)       0.00 MB       (current)
 **********************************************************************************************************************************

1PROGRAM * RHF-SCF (CLOSED SHELL)       Authors: W. Meyer, H.-J. Werner


 NUMBER OF ELECTRONS:       5+    5-    SPACE SYMMETRY=1    SPIN SYMMETRY: Singlet 
 CONVERGENCE THRESHOLDS:    1.00E-05 (Density)    1.00E-07 (Energy)
 INTEGRAL THRESHOLDS:       1.00E-11 (Initial)    1.00E-11 (Final)
 MAX. NUMBER OF ITERATIONS:       60
 INTERPOLATION TYPE:            DIIS
 INTERPOLATION STEPS:              2 (START)      1 (STEP)
 LEVEL SHIFTS:                  0.00 (CLOSED)  0.00 (OPEN) 



 Molecular orbitals read from record     2101.2  Type=RHF/CANONICAL (state 1.1)
 
 Present basis size:     264
 Previous basis size:    138
 Previous occupation:      5
 Previous closed-shells:   5
 Previous core-orbitals:   1
 Present occupation:       5
 Present closed-shells:    5
 Present core-orbitals:    1
 Wavefunction symmetry:    1   Singlet 

 Orbital overlap <old|new>:  < 1.1| 1.1> = 0.999999   < 2.1| 2.1> = 0.999998   < 3.1| 3.1> = 0.999991   < 4.1| 4.1> = 0.999991
                             < 5.1| 5.1> = 0.999991

 Molecular orbital dump at record        2102.2

 Direct Fock-matrix evaluation.        Authors: Roland Lindh & Martin Schuetz (1993/96)

 Integral Threshold:                  0.1D-10
 Threshold for writing integrals:     0.1D-06
 Prescreening on density matrix:        ON 
 Calculation will be performed fully direct        

 ITERATION   DDIFF            GRAD            ENERGY        2-EL.EN.            DIPOLE MOMENTS         DIIS   CPU(IT)  CPU(TOT)
    1      0.000D+00      0.000D+00       -40.21587027     52.231836    0.00001    0.00004   -0.00000    0      9.3      9.4   diag  
    2      0.000D+00      0.464D-03       -40.21626548     52.241928    0.00001    0.00004   -0.00000    1      8.4     17.8   diag  
    3      0.360D-02      0.238D-04       -40.21626717     52.237532    0.00001    0.00004   -0.00000    2      8.4     26.2   diag  
    4      0.303D-03      0.183D-05       -40.21626720     52.239508    0.00001    0.00004   -0.00000    3      8.3     34.6   diag  
    5      0.295D-04      0.617D-06       -40.21626720     52.238920    0.00001    0.00004   -0.00000    4      8.2     42.8   diag  
    6      0.529D-05      0.216D-06       -40.21626720     52.238964    0.00001    0.00004   -0.00000    0      7.8     50.6   orth  

 Final occupancy:   5

 !RHF STATE 1.1 Energy                -40.216267199636
 Nuclear energy                        13.47277930
 One-electron energy                  -79.80852861
 Two-electron energy                   26.11948211
 Virial quotient                       -1.00087388
 !RHF STATE 1.1 Dipole moment           0.00001286     0.00004127    -0.00000000
 Dipole moment /Debye                   0.00003269     0.00010489    -0.00000000

 Orbital energies:

         1.1          2.1          3.1          4.1          5.1          6.1          7.1
    -11.204857    -0.943524    -0.545503    -0.545476    -0.545423     0.027434     0.045156


 **********************************************************************************************************************************
 DATASETS  * FILE   NREC   LENGTH (MB)   RECORD NAMES
              1      18        5.20       500      610      700      900      950      970     1001      129      960     1100   
                                          VAR    BASINP    GEOM    SYMINP    ZMAT    AOBASIS   BASIS     P2S    ABASIS      S 
                                         1400     1410     1200     1210     1080     1600     1650     1700   
                                           T        V       H0       H01     AOSYM     SMH    MOLCAS    OPER   

              2       6        3.38       700     1000     2100     2101     1001     2102   
                                         GEOM     BASIS     RHF      RHF     BASIS     RHF  

 PROGRAMS   *        TOTAL        HF       INT       MP2        HF   CCSD(T)        HF       INT
 CPU TIMES  *        62.33     50.62      0.09      0.20      2.97      5.72      1.05      1.58
 REAL TIME  *        69.47 SEC
 DISK USED  *       903.93 MB      
 SF USED    *        54.92 MB      
 GA USED    *         0.00 MB       (max)       0.00 MB       (current)
 **********************************************************************************************************************************


1PROGRAM * MP2 (Closed-shell)     Authors: C. Hampel, H.-J. Werner, 1991, M. Deegan, P.J. Knowles, 1992

 Basis set AUG-CC-PVQZ/MP2FIT generated. Number of basis functions:   488 

 Convergence thresholds:  THRVAR = 1.00D-08  THRDEN = 1.00D-06

 Number of core orbitals:           1 (   1 )
 Number of closed-shell orbitals:   4 (   4 )
 Number of external orbitals:     259 ( 259 )

 Molecular orbitals read from record     2102.2  Type=RHF/CANONICAL (state 1.1)
 

 Entering DF-MP2

 Thresholds:    THRAO= 0.100D-09    THRMO= 0.100D-08    THROV= 0.100D-11    THRPROD= 0.100D-08

 Fitting basis: AUG-CC-PVQZ-MP2F
 Number of fitting functions:              488

 Minimum memory with paging:              1.29 MW
 Minimum memory for incore algorithm:     2.05 MW
 Memory for 3-index integrals:            0.00 MW

 Disk space for H1-integrals:             4.20 MB (   3 records)

 SCS-MP2 correlation energy:           -0.220786020353   (PS=  1.200000  PT=  0.333333)
 SCS-MP2 total energy:                -40.437053219989

 Norm of first-order wave function:     0.050144445446
 Coefficient of reference function:     0.975832954006

  Reference energy                    -40.216267199636
  MP2 singlet pair energy              -0.154780355528
  MP2 triplet pair energy              -0.056329704192
  MP2 correlation energy               -0.211110059720

 !MP2 total energy                    -40.427377259356


 **********************************************************************************************************************************
 DATASETS  * FILE   NREC   LENGTH (MB)   RECORD NAMES
              1      19        5.21       500      610      700      900      950      970     1001      129      960     1100   
                                          VAR    BASINP    GEOM    SYMINP    ZMAT    AOBASIS   BASIS     P2S    ABASIS      S 
                                         1400     1410     1200     1210     1080     1600     1650     1700      960(1)
                                           T        V       H0       H01     AOSYM     SMH    MOLCAS    OPER    ABASIS    

              2       6        3.38       700     1000     2100     2101     1001     2102   
                                         GEOM     BASIS     RHF      RHF     BASIS     RHF  

 PROGRAMS   *        TOTAL       MP2        HF       INT       MP2        HF   CCSD(T)        HF       INT
 CPU TIMES  *        63.17      0.84     50.62      0.09      0.20      2.97      5.72      1.05      1.58
 REAL TIME  *        70.81 SEC
 DISK USED  *       903.93 MB      
 SF USED    *        54.92 MB      
 GA USED    *         0.00 MB       (max)       0.00 MB       (current)
 **********************************************************************************************************************************
 SETTING EN_MP2_QZ      =       -40.42737726  AU                              

 Dump information in style MOLDEN to molpro.molden                                                                   

 Molecular orbitals read from record     2102.2  Type=RHF/CANONICAL (state 1.1)
 Occupation numbers read from record     2102.2  Type=RHF/RHF (state 1.1)
 Orbital energies read from record       2102.2  Type=RHF/CANONICAL (state 1.1)
 Redundancy group numbers read from rec  2102.2  Type=RHF/RHF (state 1.1)
 
 DUMP ORBITAL  1.1 AS ORBITAL    1  occ=    2.0000  eig=  -11.2049  GROUP=   2
 DUMP ORBITAL  2.1 AS ORBITAL    2  occ=    2.0000  eig=   -0.9435  GROUP=   2
 DUMP ORBITAL  3.1 AS ORBITAL    3  occ=    2.0000  eig=   -0.5455  GROUP=   2
 DUMP ORBITAL  4.1 AS ORBITAL    4  occ=    2.0000  eig=   -0.5455  GROUP=   2
 DUMP ORBITAL  5.1 AS ORBITAL    5  occ=    2.0000  eig=   -0.5454  GROUP=   2

 Total charge:      10.000000

 **********************************************************************************************************************************
 SETTING CBSEN          =       -40.45385396  AU                              

        DF-MP2          HF-SCF          DF-MP2          HF-SCF          CCSD(T)         HF-SCF  
    -40.42737726    -40.21626720    -40.41443197    -40.21363872    -40.44090867    -40.21363872
 **********************************************************************************************************************************
 Variable memory released
