 Entering Gaussian System, Link 0=g09
 Input=run.inp
 Output=run.out
 Initial command:
 /soft/gaussian/09-e.01/g09/l1.exe "/blues/gpfs/home/elliott/Packages/PACC/moldriver/rcdriver/rundir/SPC/CH3/WCYWZMWISLQXQU/0/2/UHFFFAOYSA-N/ezvlpJU/RUN/OPTI/A00/Gau-25665.inp" -scrdir="/blues/gpfs/home/elliott/Packages/PACC/moldriver/rcdriver/rundir/SPC/CH3/WCYWZMWISLQXQU/0/2/UHFFFAOYSA-N/ezvlpJU/RUN/OPTI/A00/"
 Entering Link 1 = /soft/gaussian/09-e.01/g09/l1.exe PID=     25666.
  
 Copyright (c) 1988,1990,1992,1993,1995,1998,2003,2009,2015,
            Gaussian, Inc.  All Rights Reserved.
  
 This is part of the Gaussian(R) 09 program.  It is based on
 the Gaussian(R) 03 system (copyright 2003, Gaussian, Inc.),
 the Gaussian(R) 98 system (copyright 1998, Gaussian, Inc.),
 the Gaussian(R) 94 system (copyright 1995, Gaussian, Inc.),
 the Gaussian 92(TM) system (copyright 1992, Gaussian, Inc.),
 the Gaussian 90(TM) system (copyright 1990, Gaussian, Inc.),
 the Gaussian 88(TM) system (copyright 1988, Gaussian, Inc.),
 the Gaussian 86(TM) system (copyright 1986, Carnegie Mellon
 University), and the Gaussian 82(TM) system (copyright 1983,
 Carnegie Mellon University). Gaussian is a federally registered
 trademark of Gaussian, Inc.
  
 This software contains proprietary and confidential information,
 including trade secrets, belonging to Gaussian, Inc.
  
 This software is provided under written license and may be
 used, copied, transmitted, or stored only in accord with that
 written license.
  
 The following legend is applicable only to US Government
 contracts under FAR:
  
                    RESTRICTED RIGHTS LEGEND
  
 Use, reproduction and disclosure by the US Government is
 subject to restrictions as set forth in subparagraphs (a)
 and (c) of the Commercial Computer Software - Restricted
 Rights clause in FAR 52.227-19.
  
 Gaussian, Inc.
 340 Quinnipiac St., Bldg. 40, Wallingford CT 06492
  
  
 ---------------------------------------------------------------
 Warning -- This program may not be used in any manner that
 competes with the business of Gaussian, Inc. or will provide
 assistance to any competitor of Gaussian, Inc.  The licensee
 of this program is prohibited from giving any competitor of
 Gaussian, Inc. access to this program.  By using this program,
 the user acknowledges that Gaussian, Inc. is engaged in the
 business of creating and licensing software in the field of
 computational chemistry and represents and warrants to the
 licensee that it is not a competitor of Gaussian, Inc. and that
 it will not use this program in any manner prohibited above.
 ---------------------------------------------------------------
  

 Cite this work as:
 Gaussian 09, Revision E.01,
 M. J. Frisch, G. W. Trucks, H. B. Schlegel, G. E. Scuseria, 
 M. A. Robb, J. R. Cheeseman, G. Scalmani, V. Barone, B. Mennucci, 
 G. A. Petersson, H. Nakatsuji, M. Caricato, X. Li, H. P. Hratchian, 
 A. F. Izmaylov, J. Bloino, G. Zheng, J. L. Sonnenberg, M. Hada, 
 M. Ehara, K. Toyota, R. Fukuda, J. Hasegawa, M. Ishida, T. Nakajima, 
 Y. Honda, O. Kitao, H. Nakai, T. Vreven, J. A. Montgomery, Jr., 
 J. E. Peralta, F. Ogliaro, M. Bearpark, J. J. Heyd, E. Brothers, 
 K. N. Kudin, V. N. Staroverov, T. Keith, R. Kobayashi, J. Normand, 
 K. Raghavachari, A. Rendell, J. C. Burant, S. S. Iyengar, J. Tomasi, 
 M. Cossi, N. Rega, J. M. Millam, M. Klene, J. E. Knox, J. B. Cross, 
 V. Bakken, C. Adamo, J. Jaramillo, R. Gomperts, R. E. Stratmann, 
 O. Yazyev, A. J. Austin, R. Cammi, C. Pomelli, J. W. Ochterski, 
 R. L. Martin, K. Morokuma, V. G. Zakrzewski, G. A. Voth, 
 P. Salvador, J. J. Dannenberg, S. Dapprich, A. D. Daniels, 
 O. Farkas, J. B. Foresman, J. V. Ortiz, J. Cioslowski, 
 and D. J. Fox, Gaussian, Inc., Wallingford CT, 2013.
 
 ******************************************
 Gaussian 09:  ES64L-G09RevE.01 30-Nov-2015
                23-Aug-2019 
 ******************************************
 %mem=20GB
 %NProcShared=10
 Will use up to   10 processors via shared memory.
 -----------------------------------------------------
 #P b3lyp/6-31g* # SCF=(xqc) # POpt=() # int=ultrafine
 -----------------------------------------------------
 1/10=7,14=-1,26=4,38=1/1,3;
 2/12=2,17=6,18=5,29=3,40=1/2;
 3/5=1,6=6,7=1,11=2,16=1,25=1,30=1,71=1,74=-5,75=-5/1,2,3;
 4//1;
 5/5=2,8=3,13=1,38=5/2,8;
 6/7=2,8=2,9=2,10=2,28=1/1;
 7/29=1/1,2,3,16;
 1/10=7,14=-1,26=4/3(2);
 2/29=3/2;
 99//99;
 2/29=3/2;
 3/5=1,6=6,7=1,11=2,16=1,25=1,30=1,71=1,74=-5,75=-5/1,2,3;
 4/5=5,16=3,69=1/1;
 5/5=2,8=3,13=1,38=5/2,8;
 7//1,2,3,16;
 1/14=-1,26=4/3(-5);
 2/29=3/2;
 6/7=2,8=2,9=2,10=2,19=2,28=1/1;
 99/9=1/99;
 Leave Link    1 at Fri Aug 23 16:04:33 2019, MaxMem=  2684354560 cpu:         0.8
 (Enter /soft/gaussian/09-e.01/g09/l101.exe)
 --------
 comment:
 --------
 Symbolic Z-matrix:
 Charge =  0 Multiplicity = 2
 C
 H                    1    R1
 H                    1    R2       2    A2
 H                    1    R3       2    A3       3    D3       0
       Variables:
  R1                    1.08255                  
  R2                    1.08255                  
  A2                  120.                       
  R3                    1.08255                  
  A3                  120.                       
  D3                  180.                       
 
 NAtoms=      4 NQM=        4 NQMF=       0 NMMI=      0 NMMIF=      0
                NMic=       0 NMicF=      0.
                    Isotopes and Nuclear Properties:
 (Nuclear quadrupole moments (NQMom) in fm**2, nuclear magnetic moments (NMagM)
  in nuclear magnetons)

  Atom         1           2           3           4
 IAtWgt=          12           1           1           1
 AtmWgt=  12.0000000   1.0078250   1.0078250   1.0078250
 NucSpn=           0           1           1           1
 AtZEff=   0.0000000   0.0000000   0.0000000   0.0000000
 NQMom=    0.0000000   0.0000000   0.0000000   0.0000000
 NMagM=    0.0000000   2.7928460   2.7928460   2.7928460
 AtZNuc=   6.0000000   1.0000000   1.0000000   1.0000000
 Leave Link  101 at Fri Aug 23 16:04:33 2019, MaxMem=  2684354560 cpu:         0.7
 (Enter /soft/gaussian/09-e.01/g09/l103.exe)

 GradGradGradGradGradGradGradGradGradGradGradGradGradGradGradGradGradGrad
 Berny optimization.
 Initialization pass.
                       ----------------------------
                       !    Initial Parameters    !
                       ! (Angstroms and Degrees)  !
 ----------------------                            ----------------------
 !      Name          Value   Derivative information (Atomic Units)     !
 ------------------------------------------------------------------------
 !       R1          1.0825   estimate D2E/DX2                          !
 !       R2          1.0825   estimate D2E/DX2                          !
 !       A2        120.0      estimate D2E/DX2                          !
 !       R3          1.0825   estimate D2E/DX2                          !
 !       A3        120.0      estimate D2E/DX2                          !
 !       D3        180.0      estimate D2E/DX2                          !
 ------------------------------------------------------------------------
 Trust Radius=3.00D-01 FncErr=1.00D-07 GrdErr=1.00D-06
 Number of steps in this run=     20 maximum allowed number of steps=    100.
 GradGradGradGradGradGradGradGradGradGradGradGradGradGradGradGradGradGrad

 Leave Link  103 at Fri Aug 23 16:04:33 2019, MaxMem=  2684354560 cpu:         0.2
 (Enter /soft/gaussian/09-e.01/g09/l202.exe)
 ---------------------------------------------------------------------------------------------------
                            Z-MATRIX (ANGSTROMS AND DEGREES)
   CD    Cent   Atom    N1       Length/X        N2       Alpha/Y        N3        Beta/Z          J
 ---------------------------------------------------------------------------------------------------
      1      1  C 
      2      2  H        1   1.082548(     1)
      3      3  H        1   1.082548(     2)      2  120.000(     4)
      4      4  H        1   1.082548(     3)      2  120.000(     5)      3  180.000(     6)      0
 ---------------------------------------------------------------------------------------------------
                         Z-Matrix orientation:                         
 ---------------------------------------------------------------------
 Center     Atomic      Atomic             Coordinates (Angstroms)
 Number     Number       Type             X           Y           Z
 ---------------------------------------------------------------------
      1          6           0        0.000000    0.000000    0.000000
      2          1           0        0.000000    0.000000    1.082548
      3          1           0        0.937514    0.000000   -0.541274
      4          1           0       -0.937514   -0.000000   -0.541274
 ---------------------------------------------------------------------
                    Distance matrix (angstroms):
                    1          2          3          4
     1  C    0.000000
     2  H    1.082548   0.000000
     3  H    1.082548   1.875028   0.000000
     4  H    1.082548   1.875028   1.875028   0.000000
 Stoichiometry    CH3(2)
 Framework group  D3H[O(C),3C2(H)]
 Deg. of freedom     1
 Full point group                 D3H     NOp  12
 Largest Abelian subgroup         C2V     NOp   4
 Largest concise Abelian subgroup C2      NOp   2
                         Standard orientation:                         
 ---------------------------------------------------------------------
 Center     Atomic      Atomic             Coordinates (Angstroms)
 Number     Number       Type             X           Y           Z
 ---------------------------------------------------------------------
      1          6           0        0.000000    0.000000    0.000000
      2          1           0        0.000000    1.082548   -0.000000
      3          1           0        0.937514   -0.541274   -0.000000
      4          1           0       -0.937514   -0.541274   -0.000000
 ---------------------------------------------------------------------
 Rotational constants (GHZ):    285.2636730    285.2636730    142.6318365
 Leave Link  202 at Fri Aug 23 16:04:33 2019, MaxMem=  2684354560 cpu:         0.2
 (Enter /soft/gaussian/09-e.01/g09/l301.exe)
 Standard basis: 6-31G(d) (6D, 7F)
 Ernie: Thresh=  0.10000D-02 Tol=  0.10000D-05 Strict=F.
 There are    12 symmetry adapted cartesian basis functions of A1  symmetry.
 There are     1 symmetry adapted cartesian basis functions of A2  symmetry.
 There are     5 symmetry adapted cartesian basis functions of B1  symmetry.
 There are     3 symmetry adapted cartesian basis functions of B2  symmetry.
 There are    12 symmetry adapted basis functions of A1  symmetry.
 There are     1 symmetry adapted basis functions of A2  symmetry.
 There are     5 symmetry adapted basis functions of B1  symmetry.
 There are     3 symmetry adapted basis functions of B2  symmetry.
    21 basis functions,    40 primitive gaussians,    21 cartesian basis functions
     5 alpha electrons        4 beta electrons
       nuclear repulsion energy         9.6455321760 Hartrees.
 IExCor=  402 DFT=T Ex+Corr=B3LYP ExCW=0 ScaHFX=  0.200000
 ScaDFX=  0.800000  0.720000  1.000000  0.810000 ScalE2=  1.000000  1.000000
 IRadAn=      5 IRanWt=     -1 IRanGd=            0 ICorTp=0 IEmpDi=  4
 NAtoms=    4 NActive=    4 NUniq=    2 SFac= 4.00D+00 NAtFMM=   60 NAOKFM=F Big=F
 Integral buffers will be    131072 words long.
 Raffenetti 2 integral format.
 Two-electron integral symmetry is turned on.
 Leave Link  301 at Fri Aug 23 16:04:34 2019, MaxMem=  2684354560 cpu:         0.9
 (Enter /soft/gaussian/09-e.01/g09/l302.exe)
 NPDir=0 NMtPBC=     1 NCelOv=     1 NCel=       1 NClECP=     1 NCelD=      1
         NCelK=      1 NCelE2=     1 NClLst=     1 CellRange=     0.0.
 One-electron integrals computed using PRISM.
 One-electron integral symmetry used in STVInt
 NBasis=    21 RedAO= T EigKep=  4.81D-02  NBF=    12     1     5     3
 NBsUse=    21 1.00D-06 EigRej= -1.00D+00 NBFU=    12     1     5     3
 Precomputing XC quadrature grid using
 IXCGrd= 4 IRadAn=           5 IRanWt=          -1 IRanGd=           0 AccXCQ= 0.00D+00.
 Generated NRdTot=       0 NPtTot=           0 NUsed=           0 NTot=          32
 NSgBfM=    21    21    21    21    21 MxSgAt=     4 MxSgA2=     4.
 Leave Link  302 at Fri Aug 23 16:04:34 2019, MaxMem=  2684354560 cpu:         1.9
 (Enter /soft/gaussian/09-e.01/g09/l303.exe)
 DipDrv:  MaxL=1.
 Leave Link  303 at Fri Aug 23 16:04:34 2019, MaxMem=  2684354560 cpu:         0.3
 (Enter /soft/gaussian/09-e.01/g09/l401.exe)
 ExpMin= 1.61D-01 ExpMax= 3.05D+03 ExpMxC= 4.57D+02 IAcc=3 IRadAn=         5 AccDes= 0.00D+00
 Harris functional with IExCor=  402 and IRadAn=       5 diagonalized for initial guess.
 HarFok:  IExCor=  402 AccDes= 0.00D+00 IRadAn=         5 IDoV= 1 UseB2=F ITyADJ=14
 ICtDFT=  3500011 ScaDFX=  1.000000  1.000000  1.000000  1.000000
 FoFCou: FMM=F IPFlag=           0 FMFlag=      100000 FMFlg1=           0
         NFxFlg=           0 DoJE=T BraDBF=F KetDBF=T FulRan=T
         wScrn=  0.000000 ICntrl=     500 IOpCl=  0 I1Cent=   200000004 NGrid=           0
         NMat0=    1 NMatS0=      1 NMatT0=    0 NMatD0=    1 NMtDS0=    0 NMtDT0=    0
 Petite list used in FoFCou.
 Harris En= -39.8317639195062    
 JPrj=0 DoOrth=F DoCkMO=F.
 Initial guess orbital symmetries:
 Alpha Orbitals:
       Occupied  (A1') (A1') (E') (E') (A2")
       Virtual   (A1') (E') (E') (E') (E') (A2") (A1') (E') (E')
                 (A1') (E") (E") (A1') (E') (E') (A1')
 Beta  Orbitals:
       Occupied  (A1') (A1') (E') (E')
       Virtual   (A2") (A1') (E') (E') (E') (E') (A2") (A1') (E')
                 (E') (A1') (E") (E") (A1') (E') (E') (A1')
 The electronic state of the initial guess is 2-A2".
 Initial guess <Sx>= 0.0000 <Sy>= 0.0000 <Sz>= 0.5000 <S**2>= 0.7500 S= 0.5000
 Leave Link  401 at Fri Aug 23 16:04:34 2019, MaxMem=  2684354560 cpu:         1.9
 (Enter /soft/gaussian/09-e.01/g09/l502.exe)
 UHF open shell SCF:
 Using DIIS extrapolation, IDIIS=  1040.
 Integral symmetry usage will be decided dynamically.
 Keep R1 and R2 ints in memory in symmetry-blocked form, NReq=897568.
 IVT=        7783 IEndB=        7783 NGot=  2684354560 MDV=  2684329035
 LenX=  2684329035 LenY=  2684328153
 Requested convergence on RMS density matrix=1.00D-08 within  64 cycles.
 Requested convergence on MAX density matrix=1.00D-06.
 Requested convergence on             energy=1.00D-06.
 No special actions if energy rises.
 FoFCou: FMM=F IPFlag=           0 FMFlag=           0 FMFlg1=           0
         NFxFlg=           0 DoJE=F BraDBF=F KetDBF=F FulRan=T
         wScrn=  0.000000 ICntrl=     600 IOpCl=  0 I1Cent=           0 NGrid=           0
         NMat0=    1 NMatS0=    231 NMatT0=    0 NMatD0=    1 NMtDS0=    0 NMtDT0=    0
 Petite list used in FoFCou.
 Integral accuracy reduced to 1.0D-05 until final iterations.

 Cycle   1  Pass 0  IDiag  1:
 E= -39.7938840563545    
 DIIS: error= 5.40D-02 at cycle   1 NSaved=   1.
 NSaved= 1 IEnMin= 1 EnMin= -39.7938840563545     IErMin= 1 ErrMin= 5.40D-02
 ErrMax= 5.40D-02  0.00D+00 EMaxC= 1.00D-01 BMatC= 1.51D-01 BMatP= 1.51D-01
 IDIUse=3 WtCom= 4.60D-01 WtEn= 5.40D-01
 Coeff-Com:  0.100D+01
 Coeff-En:   0.100D+01
 Coeff:      0.100D+01
 Gap=     0.277 Goal=   None    Shift=    0.000
 Gap=     0.382 Goal=   None    Shift=    0.000
 GapD=    0.277 DampG=1.000 DampE=0.500 DampFc=0.5000 IDamp=-1.
 Damping current iteration by 5.00D-01
 RMSDP=1.66D-02 MaxDP=1.53D-01              OVMax= 1.41D-01

 Cycle   2  Pass 0  IDiag  1:
 E= -39.8161032172047     Delta-E=       -0.022219160850 Rises=F Damp=T
 DIIS: error= 1.09D-02 at cycle   2 NSaved=   2.
 NSaved= 2 IEnMin= 2 EnMin= -39.8161032172047     IErMin= 2 ErrMin= 1.09D-02
 ErrMax= 1.09D-02  0.00D+00 EMaxC= 1.00D-01 BMatC= 5.25D-03 BMatP= 1.51D-01
 IDIUse=3 WtCom= 8.91D-01 WtEn= 1.09D-01
 Coeff-Com: -0.978D-02 0.101D+01
 Coeff-En:   0.000D+00 0.100D+01
 Coeff:     -0.871D-02 0.101D+01
 Gap=     0.334 Goal=   None    Shift=    0.000
 Gap=     0.356 Goal=   None    Shift=    0.000
 RMSDP=1.90D-03 MaxDP=1.42D-02 DE=-2.22D-02 OVMax= 6.57D-02

 Cycle   3  Pass 0  IDiag  1:
 E= -39.8382393377443     Delta-E=       -0.022136120540 Rises=F Damp=F
 DIIS: error= 1.38D-03 at cycle   3 NSaved=   3.
 NSaved= 3 IEnMin= 3 EnMin= -39.8382393377443     IErMin= 3 ErrMin= 1.38D-03
 ErrMax= 1.38D-03  0.00D+00 EMaxC= 1.00D-01 BMatC= 8.05D-05 BMatP= 5.25D-03
 IDIUse=3 WtCom= 9.86D-01 WtEn= 1.38D-02
 Coeff-Com: -0.618D-02 0.415D-02 0.100D+01
 Coeff-En:   0.000D+00 0.000D+00 0.100D+01
 Coeff:     -0.610D-02 0.409D-02 0.100D+01
 Gap=     0.338 Goal=   None    Shift=    0.000
 Gap=     0.358 Goal=   None    Shift=    0.000
 RMSDP=3.21D-04 MaxDP=2.67D-03 DE=-2.21D-02 OVMax= 3.18D-03

 Cycle   4  Pass 0  IDiag  1:
 E= -39.8382855804085     Delta-E=       -0.000046242664 Rises=F Damp=F
 DIIS: error= 3.64D-04 at cycle   4 NSaved=   4.
 NSaved= 4 IEnMin= 4 EnMin= -39.8382855804085     IErMin= 4 ErrMin= 3.64D-04
 ErrMax= 3.64D-04  0.00D+00 EMaxC= 1.00D-01 BMatC= 8.19D-06 BMatP= 8.05D-05
 IDIUse=3 WtCom= 9.96D-01 WtEn= 3.64D-03
 Coeff-Com:  0.680D-04-0.111D-01-0.305D+00 0.132D+01
 Coeff-En:   0.000D+00 0.000D+00 0.000D+00 0.100D+01
 Coeff:      0.677D-04-0.111D-01-0.304D+00 0.132D+01
 Gap=     0.339 Goal=   None    Shift=    0.000
 Gap=     0.359 Goal=   None    Shift=    0.000
 RMSDP=1.50D-04 MaxDP=1.06D-03 DE=-4.62D-05 OVMax= 1.37D-03

 Cycle   5  Pass 0  IDiag  1:
 E= -39.8382919191312     Delta-E=       -0.000006338723 Rises=F Damp=F
 DIIS: error= 6.31D-05 at cycle   5 NSaved=   5.
 NSaved= 5 IEnMin= 5 EnMin= -39.8382919191312     IErMin= 5 ErrMin= 6.31D-05
 ErrMax= 6.31D-05  0.00D+00 EMaxC= 1.00D-01 BMatC= 2.62D-07 BMatP= 8.19D-06
 IDIUse=1 WtCom= 1.00D+00 WtEn= 0.00D+00
 Coeff-Com:  0.368D-03 0.266D-02 0.112D-01-0.246D+00 0.123D+01
 Coeff:      0.368D-03 0.266D-02 0.112D-01-0.246D+00 0.123D+01
 Gap=     0.339 Goal=   None    Shift=    0.000
 Gap=     0.359 Goal=   None    Shift=    0.000
 RMSDP=3.08D-05 MaxDP=2.13D-04 DE=-6.34D-06 OVMax= 2.77D-04

 Cycle   6  Pass 0  IDiag  1:
 E= -39.8382921248276     Delta-E=       -0.000000205696 Rises=F Damp=F
 DIIS: error= 6.05D-06 at cycle   6 NSaved=   6.
 NSaved= 6 IEnMin= 6 EnMin= -39.8382921248276     IErMin= 6 ErrMin= 6.05D-06
 ErrMax= 6.05D-06  0.00D+00 EMaxC= 1.00D-01 BMatC= 1.55D-09 BMatP= 2.62D-07
 IDIUse=1 WtCom= 1.00D+00 WtEn= 0.00D+00
 Coeff-Com: -0.817D-05-0.130D-03 0.482D-02-0.216D-02-0.104D+00 0.110D+01
 Coeff:     -0.817D-05-0.130D-03 0.482D-02-0.216D-02-0.104D+00 0.110D+01
 Gap=     0.339 Goal=   None    Shift=    0.000
 Gap=     0.359 Goal=   None    Shift=    0.000
 RMSDP=2.35D-06 MaxDP=1.78D-05 DE=-2.06D-07 OVMax= 2.23D-05

 Initial convergence to 1.0D-05 achieved.  Increase integral accuracy.
 Cycle   7  Pass 1  IDiag  1:
 E= -39.8382918306440     Delta-E=        0.000000294184 Rises=F Damp=F
 DIIS: error= 1.11D-06 at cycle   1 NSaved=   1.
 NSaved= 1 IEnMin= 1 EnMin= -39.8382918306440     IErMin= 1 ErrMin= 1.11D-06
 ErrMax= 1.11D-06  0.00D+00 EMaxC= 1.00D-01 BMatC= 2.77D-11 BMatP= 2.77D-11
 IDIUse=1 WtCom= 1.00D+00 WtEn= 0.00D+00
 Coeff-Com:  0.100D+01
 Coeff:      0.100D+01
 Gap=     0.339 Goal=   None    Shift=    0.000
 Gap=     0.359 Goal=   None    Shift=    0.000
 RMSDP=2.35D-06 MaxDP=1.78D-05 DE= 2.94D-07 OVMax= 1.43D-06

 Cycle   8  Pass 1  IDiag  1:
 E= -39.8382918306521     Delta-E=       -0.000000000008 Rises=F Damp=F
 DIIS: error= 2.38D-07 at cycle   2 NSaved=   2.
 NSaved= 2 IEnMin= 2 EnMin= -39.8382918306521     IErMin= 2 ErrMin= 2.38D-07
 ErrMax= 2.38D-07  0.00D+00 EMaxC= 1.00D-01 BMatC= 2.01D-12 BMatP= 2.77D-11
 IDIUse=1 WtCom= 1.00D+00 WtEn= 0.00D+00
 Coeff-Com:  0.282D-01 0.972D+00
 Coeff:      0.282D-01 0.972D+00
 Gap=     0.339 Goal=   None    Shift=    0.000
 Gap=     0.359 Goal=   None    Shift=    0.000
 RMSDP=6.47D-08 MaxDP=7.62D-07 DE=-8.07D-12 OVMax= 6.58D-07

 Cycle   9  Pass 1  IDiag  1:
 E= -39.8382918306526     Delta-E=       -0.000000000000 Rises=F Damp=F
 DIIS: error= 1.81D-07 at cycle   3 NSaved=   3.
 NSaved= 3 IEnMin= 3 EnMin= -39.8382918306526     IErMin= 3 ErrMin= 1.81D-07
 ErrMax= 1.81D-07  0.00D+00 EMaxC= 1.00D-01 BMatC= 1.36D-12 BMatP= 2.01D-12
 IDIUse=1 WtCom= 1.00D+00 WtEn= 0.00D+00
 Coeff-Com: -0.688D-01 0.457D+00 0.612D+00
 Coeff:     -0.688D-01 0.457D+00 0.612D+00
 Gap=     0.339 Goal=   None    Shift=    0.000
 Gap=     0.359 Goal=   None    Shift=    0.000
 RMSDP=2.59D-08 MaxDP=2.49D-07 DE=-4.83D-13 OVMax= 2.87D-07

 Cycle  10  Pass 1  IDiag  1:
 E= -39.8382918306530     Delta-E=       -0.000000000000 Rises=F Damp=F
 DIIS: error= 2.24D-08 at cycle   4 NSaved=   4.
 NSaved= 4 IEnMin= 4 EnMin= -39.8382918306530     IErMin= 4 ErrMin= 2.24D-08
 ErrMax= 2.24D-08  0.00D+00 EMaxC= 1.00D-01 BMatC= 2.15D-14 BMatP= 1.36D-12
 IDIUse=1 WtCom= 1.00D+00 WtEn= 0.00D+00
 Coeff-Com:  0.153D-01-0.193D+00-0.150D+00 0.133D+01
 Coeff:      0.153D-01-0.193D+00-0.150D+00 0.133D+01
 Gap=     0.339 Goal=   None    Shift=    0.000
 Gap=     0.359 Goal=   None    Shift=    0.000
 RMSDP=8.79D-09 MaxDP=6.01D-08 DE=-3.98D-13 OVMax= 8.05D-08

 SCF Done:  E(UB3LYP) =  -39.8382918307     A.U. after   10 cycles
            NFock= 10  Conv=0.88D-08     -V/T= 2.0101
 <Sx>= 0.0000 <Sy>= 0.0000 <Sz>= 0.5000 <S**2>= 0.7538 S= 0.5019
 <L.S>= 0.000000000000E+00
 KE= 3.943896033315D+01 PE=-1.110614631706D+02 EE= 2.213867883074D+01
 Annihilation of the first spin contaminant:
 S**2 before annihilation     0.7538,   after     0.7500
 Leave Link  502 at Fri Aug 23 16:04:34 2019, MaxMem=  2684354560 cpu:         2.4
 (Enter /soft/gaussian/09-e.01/g09/l508.exe)
 QCSCF skips out because SCF is already converged.
 Leave Link  508 at Fri Aug 23 16:04:34 2019, MaxMem=  2684354560 cpu:         0.0
 (Enter /soft/gaussian/09-e.01/g09/l601.exe)
 Copying SCF densities to generalized density rwf, IOpCl= 1 IROHF=0.

 **********************************************************************

            Population analysis using the SCF density.

 **********************************************************************

 Orbital symmetries:
 Alpha Orbitals:
       Occupied  (A1') (A1') (E') (E') (A2")
       Virtual   (A1') (E') (E') (A2") (E') (E') (A1') (E') (E')
                 (A1') (E") (E") (A1') (E') (E') (A1')
 Beta  Orbitals:
       Occupied  (A1') (A1') (E') (E')
       Virtual   (A2") (A1') (E') (E') (E') (E') (A2") (A1') (E')
                 (E') (A1') (E") (E") (A1') (E') (E') (A1')
 The electronic state is 2-A2".
 Alpha  occ. eigenvalues --  -10.19150  -0.68127  -0.41646  -0.41646  -0.22427
 Alpha virt. eigenvalues --    0.11467   0.18209   0.18209   0.53685   0.54490
 Alpha virt. eigenvalues --    0.54490   0.68303   0.91452   0.91452   0.95819
 Alpha virt. eigenvalues --    1.65009   1.65009   2.01083   2.18697   2.18697
 Alpha virt. eigenvalues --    4.06666
  Beta  occ. eigenvalues --  -10.17739  -0.64059  -0.40682  -0.40682
  Beta virt. eigenvalues --   -0.04795   0.13079   0.18760   0.18760   0.55305
  Beta virt. eigenvalues --    0.55305   0.61533   0.70966   0.91940   0.91940
  Beta virt. eigenvalues --    0.98701   1.72169   1.72169   2.09725   2.19824
  Beta virt. eigenvalues --    2.19824   4.10451
          Condensed to atoms (all electrons):
               1          2          3          4
     1  C    5.344649   0.380990   0.380990   0.380990
     2  H    0.380990   0.515996  -0.029763  -0.029763
     3  H    0.380990  -0.029763   0.515996  -0.029763
     4  H    0.380990  -0.029763  -0.029763   0.515996
          Atomic-Atomic Spin Densities.
               1          2          3          4
     1  C    1.182372  -0.008873  -0.008873  -0.008873
     2  H   -0.008873  -0.044882   0.000919   0.000919
     3  H   -0.008873   0.000919  -0.044882   0.000919
     4  H   -0.008873   0.000919   0.000919  -0.044882
 Mulliken charges and spin densities:
               1          2
     1  C   -0.487620   1.155752
     2  H    0.162540  -0.051917
     3  H    0.162540  -0.051917
     4  H    0.162540  -0.051917
 Sum of Mulliken charges =   0.00000   1.00000
 Mulliken charges and spin densities with hydrogens summed into heavy atoms:
               1          2
     1  C    0.000000   1.000000
 Electronic spatial extent (au):  <R**2>=             29.3955
 Charge=              0.0000 electrons
 Dipole moment (field-independent basis, Debye):
    X=             -0.0000    Y=             -0.0000    Z=             -0.0000  Tot=              0.0000
 Quadrupole moment (field-independent basis, Debye-Ang):
   XX=             -7.0056   YY=             -7.0056   ZZ=             -8.6400
   XY=              0.0000   XZ=              0.0000   YZ=             -0.0000
 Traceless Quadrupole moment (field-independent basis, Debye-Ang):
   XX=              0.5448   YY=              0.5448   ZZ=             -1.0896
   XY=              0.0000   XZ=              0.0000   YZ=             -0.0000
 Octapole moment (field-independent basis, Debye-Ang**2):
  XXX=             -0.0000  YYY=              0.7988  ZZZ=              0.0000  XYY=              0.0000
  XXY=             -0.7988  XXZ=             -0.0000  XZZ=              0.0000  YZZ=              0.0000
  YYZ=              0.0000  XYZ=             -0.0000
 Hexadecapole moment (field-independent basis, Debye-Ang**3):
 XXXX=            -13.9278 YYYY=            -13.9278 ZZZZ=             -8.9736 XXXY=              0.0000
 XXXZ=              0.0000 YYYX=              0.0000 YYYZ=             -0.0000 ZZZX=              0.0000
 ZZZY=             -0.0000 XXYY=             -4.6426 XXZZ=             -4.1489 YYZZ=             -4.1489
 XXYZ=             -0.0000 YYXZ=              0.0000 ZZXY=              0.0000
 N-N= 9.645532176038D+00 E-N=-1.110614630331D+02  KE= 3.943896033315D+01
 Symmetry A1   KE= 3.633633530189D+01
 Symmetry A2   KE= 1.676640832634D-33
 Symmetry B1   KE= 1.958906191825D+00
 Symmetry B2   KE= 1.143718839437D+00
                          Isotropic Fermi Contact Couplings
        Atom                 a.u.       MegaHertz       Gauss      10(-4) cm-1
     1  C(13)              0.11045     124.16265      44.30432      41.41620
     2  H(1)              -0.01588     -70.97033     -25.32398     -23.67315
     3  H(1)              -0.01588     -70.97033     -25.32398     -23.67315
     4  H(1)              -0.01588     -70.97033     -25.32398     -23.67315
 --------------------------------------------------------
       Center         ----  Spin Dipole Couplings  ----
                      3XX-RR        3YY-RR        3ZZ-RR
 --------------------------------------------------------
     1   Atom       -0.547584     -0.547584      1.095169
     2   Atom       -0.073196      0.078749     -0.005553
     3   Atom        0.040763     -0.035210     -0.005553
     4   Atom        0.040763     -0.035210     -0.005553
 --------------------------------------------------------
                        XY            XZ            YZ
 --------------------------------------------------------
     1   Atom        0.000000      0.000000      0.000000
     2   Atom       -0.000000     -0.000000     -0.000000
     3   Atom       -0.065794      0.000000     -0.000000
     4   Atom        0.065794     -0.000000     -0.000000
 --------------------------------------------------------


 ---------------------------------------------------------------------------------
              Anisotropic Spin Dipole Couplings in Principal Axis System
 ---------------------------------------------------------------------------------

       Atom             a.u.   MegaHertz   Gauss  10(-4) cm-1        Axes

              Baa    -0.5476   -73.481   -26.220   -24.510 -0.6370  0.7709 -0.0000
     1 C(13)  Bbb    -0.5476   -73.481   -26.220   -24.510  0.7709  0.6370 -0.0000
              Bcc     1.0952   146.961    52.439    49.021  0.0000  0.0000  1.0000
 
              Baa    -0.0732   -39.054   -13.935   -13.027  1.0000  0.0000 -0.0000
     2 H(1)   Bbb    -0.0056    -2.963    -1.057    -0.988  0.0000  0.0000  1.0000
              Bcc     0.0787    42.017    14.993    14.015 -0.0000  1.0000 -0.0000
 
              Baa    -0.0732   -39.054   -13.935   -13.027  0.5000  0.8660 -0.0000
     3 H(1)   Bbb    -0.0056    -2.963    -1.057    -0.988  0.0000  0.0000  1.0000
              Bcc     0.0787    42.017    14.993    14.015  0.8660 -0.5000  0.0000
 
              Baa    -0.0732   -39.054   -13.935   -13.027 -0.5000  0.8660 -0.0000
     4 H(1)   Bbb    -0.0056    -2.963    -1.057    -0.988  0.0000  0.0000  1.0000
              Bcc     0.0787    42.017    14.993    14.015  0.8660  0.5000 -0.0000
 

 ---------------------------------------------------------------------------------

 No NMR shielding tensors so no spin-rotation constants.
 Leave Link  601 at Fri Aug 23 16:04:35 2019, MaxMem=  2684354560 cpu:         3.1
 (Enter /soft/gaussian/09-e.01/g09/l701.exe)
 Compute integral first derivatives.
 ... and contract with generalized density number  0.
 Leave Link  701 at Fri Aug 23 16:04:35 2019, MaxMem=  2684354560 cpu:         1.6
 (Enter /soft/gaussian/09-e.01/g09/l702.exe)
 L702 exits ... SP integral derivatives will be done elsewhere.
 Leave Link  702 at Fri Aug 23 16:04:35 2019, MaxMem=  2684354560 cpu:         0.2
 (Enter /soft/gaussian/09-e.01/g09/l703.exe)
 Compute integral first derivatives, UseDBF=F ICtDFT=           0.
 Integral derivatives from FoFJK, PRISM(SPDF).
 Calling FoFJK, ICntrl=      2127 FMM=F ISym2X=1 I1Cent= 0 IOpClX= 1 NMat=1 NMatS=1 NMatT=0.
 FoFJK:  IHMeth= 1 ICntrl=    2127 DoSepK=F KAlg= 0 I1Cent=   0 FoldK=F
 IRaf=         0 NMat=   1 IRICut=       1 DoRegI=T DoRafI=F ISym2E= 1.
 FoFCou: FMM=F IPFlag=           0 FMFlag=      100000 FMFlg1=         800
         NFxFlg=           0 DoJE=F BraDBF=F KetDBF=F FulRan=T
         wScrn=  0.000000 ICntrl=    2127 IOpCl=  1 I1Cent=           0 NGrid=           0
         NMat0=    1 NMatS0=      1 NMatT0=    0 NMatD0=    1 NMtDS0=    0 NMtDT0=    0
 Petite list used in FoFCou.
 Leave Link  703 at Fri Aug 23 16:04:35 2019, MaxMem=  2684354560 cpu:         1.4
 (Enter /soft/gaussian/09-e.01/g09/l716.exe)
 Dipole        =-4.44089210D-16-4.44089210D-16-2.40146345D-33
 ***** Axes restored to original set *****
 -------------------------------------------------------------------
 Center     Atomic                   Forces (Hartrees/Bohr)
 Number     Number              X              Y              Z
 -------------------------------------------------------------------
      1        6          -0.000000000    0.000000000   -0.000000000
      2        1           0.000000000    0.000000000    0.000141704
      3        1           0.000122720   -0.000000000   -0.000070852
      4        1          -0.000122720   -0.000000000   -0.000070852
 -------------------------------------------------------------------
 Cartesian Forces:  Max     0.000141704 RMS     0.000070852
 -----------------------------------------------------------------------------------------------
                       Internal Coordinate Forces (Hartree/Bohr or radian)
  Cent   Atom   N1       Length/X         N2         Alpha/Y        N3         Beta/Z          J
 -----------------------------------------------------------------------------------------------
      1  C 
      2  H        1   0.000142(     1)
      3  H        1   0.000142(     2)      2  -0.000000(     4)
      4  H        1   0.000142(     3)      2   0.000000(     5)      3  -0.000000(     6)     0
 -----------------------------------------------------------------------------------------------
 Internal  Forces:  Max     0.000141704 RMS     0.000100200
 Force constants in Cartesian coordinates: 
                1             2             3             4             5 
      1  0.707368D+00
      2  0.000000D+00  0.967750D-01
      3  0.000000D+00  0.000000D+00  0.707368D+00
      4 -0.114696D+00  0.000000D+00  0.000000D+00  0.764642D-01
      5  0.000000D+00 -0.322583D-01  0.000000D+00  0.000000D+00  0.107528D-01
      6  0.000000D+00  0.000000D+00 -0.356882D+00  0.000000D+00  0.000000D+00
      7 -0.296336D+00  0.000000D+00  0.104870D+00  0.191160D-01  0.000000D+00
      8  0.000000D+00 -0.322583D-01  0.000000D+00  0.000000D+00  0.107528D-01
      9  0.104870D+00  0.000000D+00 -0.175243D+00  0.331100D-01  0.000000D+00
     10 -0.296336D+00  0.000000D+00 -0.104870D+00  0.191160D-01  0.000000D+00
     11  0.000000D+00 -0.322583D-01  0.000000D+00  0.000000D+00  0.107528D-01
     12 -0.104870D+00  0.000000D+00 -0.175243D+00 -0.331100D-01  0.000000D+00
                6             7             8             9            10 
      6  0.356882D+00
      7  0.000000D+00  0.286778D+00
      8  0.000000D+00  0.000000D+00  0.107528D-01
      9  0.000000D+00 -0.121425D+00  0.000000D+00  0.146569D+00
     10  0.000000D+00 -0.955802D-02  0.000000D+00 -0.165550D-01  0.286778D+00
     11  0.000000D+00  0.000000D+00  0.107528D-01  0.000000D+00  0.000000D+00
     12  0.000000D+00  0.165550D-01  0.000000D+00  0.286741D-01  0.121425D+00
               11            12 
     11  0.107528D-01
     12  0.000000D+00  0.146569D+00
 Force constants in internal coordinates: 
                1             2             3             4             5 
      1  0.356882D+00
      2  0.000000D+00  0.356882D+00
      3  0.000000D+00  0.000000D+00  0.356882D+00
      4  0.000000D+00  0.000000D+00  0.000000D+00  0.320000D+00
      5  0.000000D+00  0.000000D+00  0.000000D+00  0.160000D+00  0.320000D+00
      6  0.000000D+00  0.000000D+00  0.000000D+00  0.000000D+00  0.000000D+00
                6 
      6  0.337500D-01
 Leave Link  716 at Fri Aug 23 16:04:35 2019, MaxMem=  2684354560 cpu:         0.3
 (Enter /soft/gaussian/09-e.01/g09/l103.exe)

 GradGradGradGradGradGradGradGradGradGradGradGradGradGradGradGradGradGrad
 Berny optimization.
 Search for a local minimum.
 Step number   1 out of a maximum of   20
 All quantities printed in internal units (Hartrees-Bohrs-Radians)
 Second derivative matrix not updated -- first step.
 The second derivative matrix:
                          R1        R2        A2        R3        A3
           R1           0.35688
           R2           0.00000   0.35688
           A2          -0.00000   0.00000   0.32000
           R3          -0.00000  -0.00000   0.00000   0.35688
           A3           0.00000  -0.00000   0.16000  -0.00000   0.32000
           D3          -0.00000   0.00000  -0.00000   0.00000  -0.00000
                          D3
           D3           0.03375
 ITU=  0
     Eigenvalues ---    0.03375   0.16000   0.35688   0.35688   0.35688
     Eigenvalues ---    0.48000
 RFO step:  Lambda=-1.68796537D-07 EMin= 3.37500000D-02
 Linear search not attempted -- first point.
 Variable       Old X    -DE/DX   Delta X   Delta X   Delta X     New X
                                 (Linear)    (Quad)   (Total)
    R1        2.04572   0.00014   0.00000   0.00040   0.00040   2.04612
    R2        2.04572   0.00014   0.00000   0.00040   0.00040   2.04612
    A2        2.09440  -0.00000   0.00000  -0.00000  -0.00000   2.09440
    R3        2.04572   0.00014   0.00000   0.00040   0.00040   2.04612
    A3        2.09440   0.00000   0.00000   0.00000   0.00000   2.09440
    D3        3.14159  -0.00000   0.00000  -0.00000   0.00000   3.14159
         Item               Value     Threshold  Converged?
 Maximum Force            0.000142     0.000450     YES
 RMS     Force            0.000100     0.000300     YES
 Maximum Displacement     0.000397     0.001800     YES
 RMS     Displacement     0.000281     0.001200     YES
 Predicted change in Energy=-8.439827D-08
 Optimization completed.
    -- Stationary point found.
                       ----------------------------
                       !   Optimized Parameters   !
                       ! (Angstroms and Degrees)  !
 ----------------------                            ----------------------
 !      Name          Value   Derivative information (Atomic Units)     !
 ------------------------------------------------------------------------
 !       R1          1.0825   -DE/DX =    0.0001                        !
 !       R2          1.0825   -DE/DX =    0.0001                        !
 !       A2        120.0      -DE/DX =    0.0                           !
 !       R3          1.0825   -DE/DX =    0.0001                        !
 !       A3        120.0      -DE/DX =    0.0                           !
 !       D3        180.0      -DE/DX =    0.0                           !
 ------------------------------------------------------------------------
 Lowest energy point so far.  Saving SCF results.
 GradGradGradGradGradGradGradGradGradGradGradGradGradGradGradGradGradGrad

 Largest change from initial coordinates is atom    3       0.000 Angstoms.
 Leave Link  103 at Fri Aug 23 16:04:35 2019, MaxMem=  2684354560 cpu:         0.2
 (Enter /soft/gaussian/09-e.01/g09/l202.exe)
 ---------------------------------------------------------------------------------------------------
                            Z-MATRIX (ANGSTROMS AND DEGREES)
   CD    Cent   Atom    N1       Length/X        N2       Alpha/Y        N3        Beta/Z          J
 ---------------------------------------------------------------------------------------------------
      1      1  C 
      2      2  H        1   1.082548(     1)
      3      3  H        1   1.082548(     2)      2  120.000(     4)
      4      4  H        1   1.082548(     3)      2  120.000(     5)      3  180.000(     6)      0
 ---------------------------------------------------------------------------------------------------
                         Z-Matrix orientation:                         
 ---------------------------------------------------------------------
 Center     Atomic      Atomic             Coordinates (Angstroms)
 Number     Number       Type             X           Y           Z
 ---------------------------------------------------------------------
      1          6           0        0.000000    0.000000    0.000000
      2          1           0        0.000000    0.000000    1.082548
      3          1           0        0.937514    0.000000   -0.541274
      4          1           0       -0.937514   -0.000000   -0.541274
 ---------------------------------------------------------------------
                    Distance matrix (angstroms):
                    1          2          3          4
     1  C    0.000000
     2  H    1.082548   0.000000
     3  H    1.082548   1.875028   0.000000
     4  H    1.082548   1.875028   1.875028   0.000000
 Stoichiometry    CH3(2)
 Framework group  D3H[O(C),3C2(H)]
 Deg. of freedom     1
 Full point group                 D3H     NOp  12
 RotChk:  IX=0 Diff= 2.35D-48
 Largest Abelian subgroup         C2V     NOp   4
 Largest concise Abelian subgroup C2      NOp   2
                         Standard orientation:                         
 ---------------------------------------------------------------------
 Center     Atomic      Atomic             Coordinates (Angstroms)
 Number     Number       Type             X           Y           Z
 ---------------------------------------------------------------------
      1          6           0        0.000000    0.000000    0.000000
      2          1           0        0.000000    1.082548   -0.000000
      3          1           0        0.937514   -0.541274   -0.000000
      4          1           0       -0.937514   -0.541274   -0.000000
 ---------------------------------------------------------------------
 Rotational constants (GHZ):    285.2636730    285.2636730    142.6318365
 Leave Link  202 at Fri Aug 23 16:04:35 2019, MaxMem=  2684354560 cpu:         0.2
 (Enter /soft/gaussian/09-e.01/g09/l9999.exe)
 1\1\GINC-BLUESLOGIN2\POpt\UB3LYP\6-31G(d)\C1H3(2)\ELLIOTT\23-Aug-2019\
 1\\#P b3lyp/6-31g* # SCF=(xqc) # POpt=() # int=ultrafine\\comment:\\0,
 2\C\H,1,R1\H,1,R2,2,A2\H,1,R3,2,A3,3,D3,0\\R1=1.082548\R2=1.082548\A2=
 120.\R3=1.082548\A3=120.\D3=180.\\Version=ES64L-G09RevE.01\State=2-A2"
 \HF=-39.8382918\S2=0.753762\S2-1=0.\S2A=0.750007\RMSD=8.786e-09\RMSF=7
 .085e-05\Dipole=0.,0.,0.\Quadrupole=0.4050509,-0.8101019,0.4050509,0.,
 0.,0.\PG=D03H [O(C1),3C2(H1)]\\@


 ROSE IS A RED
 TY COBB IS BLUE
 'CAUSE PETE JUST HIT
 NO. 4592.
 Job cpu time:       0 days  0 hours  0 minutes 16.7 seconds.
 File lengths (MBytes):  RWF=     72 Int=      0 D2E=      0 Chk=      2 Scr=      2
 Normal termination of Gaussian 09 at Fri Aug 23 16:04:35 2019.
