 Entering Gaussian System, Link 0=g09
 Input=run.inp
 Output=run.out
 Initial command:
 /soft/gaussian/09-e.01/g09/l1.exe "/blues/gpfs/home/elliott/Packages/PACC/moldriver/rcdriver/tmprundir/RXN/CH3.H2/MDUSDFXREFXETQ/0_0/2_1/UHFFFAOYSA-N/CH4.H/HXBDELFRWIQQII/0_0/1_2/UHFFFAOYSA-N/2/ezvlpJU/SCANS/R6/01/RUN/OPTI/A04/Gau-158143.inp" -scrdir="/blues/gpfs/home/elliott/Packages/PACC/moldriver/rcdriver/tmprundir/RXN/CH3.H2/MDUSDFXREFXETQ/0_0/2_1/UHFFFAOYSA-N/CH4.H/HXBDELFRWIQQII/0_0/1_2/UHFFFAOYSA-N/2/ezvlpJU/SCANS/R6/01/RUN/OPTI/A04/"
 Entering Link 1 = /soft/gaussian/09-e.01/g09/l1.exe PID=    158144.
  
 Copyright (c) 1988,1990,1992,1993,1995,1998,2003,2009,2015,
            Gaussian, Inc.  All Rights Reserved.
  
 This is part of the Gaussian(R) 09 program.  It is based on
 the Gaussian(R) 03 system (copyright 2003, Gaussian, Inc.),
 the Gaussian(R) 98 system (copyright 1998, Gaussian, Inc.),
 the Gaussian(R) 94 system (copyright 1995, Gaussian, Inc.),
 the Gaussian 92(TM) system (copyright 1992, Gaussian, Inc.),
 the Gaussian 90(TM) system (copyright 1990, Gaussian, Inc.),
 the Gaussian 88(TM) system (copyright 1988, Gaussian, Inc.),
 the Gaussian 86(TM) system (copyright 1986, Carnegie Mellon
 University), and the Gaussian 82(TM) system (copyright 1983,
 Carnegie Mellon University). Gaussian is a federally registered
 trademark of Gaussian, Inc.
  
 This software contains proprietary and confidential information,
 including trade secrets, belonging to Gaussian, Inc.
  
 This software is provided under written license and may be
 used, copied, transmitted, or stored only in accord with that
 written license.
  
 The following legend is applicable only to US Government
 contracts under FAR:
  
                    RESTRICTED RIGHTS LEGEND
  
 Use, reproduction and disclosure by the US Government is
 subject to restrictions as set forth in subparagraphs (a)
 and (c) of the Commercial Computer Software - Restricted
 Rights clause in FAR 52.227-19.
  
 Gaussian, Inc.
 340 Quinnipiac St., Bldg. 40, Wallingford CT 06492
  
  
 ---------------------------------------------------------------
 Warning -- This program may not be used in any manner that
 competes with the business of Gaussian, Inc. or will provide
 assistance to any competitor of Gaussian, Inc.  The licensee
 of this program is prohibited from giving any competitor of
 Gaussian, Inc. access to this program.  By using this program,
 the user acknowledges that Gaussian, Inc. is engaged in the
 business of creating and licensing software in the field of
 computational chemistry and represents and warrants to the
 licensee that it is not a competitor of Gaussian, Inc. and that
 it will not use this program in any manner prohibited above.
 ---------------------------------------------------------------
  

 Cite this work as:
 Gaussian 09, Revision E.01,
 M. J. Frisch, G. W. Trucks, H. B. Schlegel, G. E. Scuseria, 
 M. A. Robb, J. R. Cheeseman, G. Scalmani, V. Barone, B. Mennucci, 
 G. A. Petersson, H. Nakatsuji, M. Caricato, X. Li, H. P. Hratchian, 
 A. F. Izmaylov, J. Bloino, G. Zheng, J. L. Sonnenberg, M. Hada, 
 M. Ehara, K. Toyota, R. Fukuda, J. Hasegawa, M. Ishida, T. Nakajima, 
 Y. Honda, O. Kitao, H. Nakai, T. Vreven, J. A. Montgomery, Jr., 
 J. E. Peralta, F. Ogliaro, M. Bearpark, J. J. Heyd, E. Brothers, 
 K. N. Kudin, V. N. Staroverov, T. Keith, R. Kobayashi, J. Normand, 
 K. Raghavachari, A. Rendell, J. C. Burant, S. S. Iyengar, J. Tomasi, 
 M. Cossi, N. Rega, J. M. Millam, M. Klene, J. E. Knox, J. B. Cross, 
 V. Bakken, C. Adamo, J. Jaramillo, R. Gomperts, R. E. Stratmann, 
 O. Yazyev, A. J. Austin, R. Cammi, C. Pomelli, J. W. Ochterski, 
 R. L. Martin, K. Morokuma, V. G. Zakrzewski, G. A. Voth, 
 P. Salvador, J. J. Dannenberg, S. Dapprich, A. D. Daniels, 
 O. Farkas, J. B. Foresman, J. V. Ortiz, J. Cioslowski, 
 and D. J. Fox, Gaussian, Inc., Wallingford CT, 2013.
 
 ******************************************
 Gaussian 09:  ES64L-G09RevE.01 30-Nov-2015
                 5-Sep-2019 
 ******************************************
 %mem=20GB
 %NProcShared=10
 Will use up to   10 processors via shared memory.
 -----------------------------------------------------------
 #P b3lyp/6-31g* # SCF=(xqc) # POpt=(calcfc) # int=ultrafine
 -----------------------------------------------------------
 1/10=4,14=-1,26=4,38=1/1,3;
 2/12=2,17=6,18=5,29=3,40=1/2;
 3/5=1,6=6,7=1,11=2,16=1,25=1,30=1,71=2,74=-5,75=-5,140=1/1,2,3;
 4//1;
 5/5=2,8=3,13=1,38=5/2,8;
 8/6=4,10=90,11=11/1;
 11/6=1,8=1,9=11,15=111,16=1/1,2,10;
 10/6=1,13=1/2;
 6/7=2,8=2,9=2,10=2,28=1/1;
 7/10=1,18=20,25=1/1,2,3,16;
 1/10=4,14=-1,26=4/3(2);
 2/29=3/2;
 99//99;
 2/29=3/2;
 3/5=1,6=6,7=1,11=2,16=1,25=1,30=1,71=1,74=-5,75=-5/1,2,3;
 4/5=5,16=3,69=1/1;
 5/5=2,8=3,13=1,38=5/2,8;
 7//1,2,3,16;
 1/14=-1,26=4/3(-5);
 2/29=3/2;
 6/7=2,8=2,9=2,10=2,19=2,28=1/1;
 99/9=1/99;
 Leave Link    1 at Thu Sep  5 23:07:10 2019, MaxMem=  2684354560 cpu:         0.9
 (Enter /soft/gaussian/09-e.01/g09/l101.exe)
 --------
 comment:
 --------
 Symbolic Z-matrix:
 Charge =  0 Multiplicity = 2
 C
 H                    1    R1
 H                    1    R2       2    A2
 H                    1    R3       2    A3       3    D3       0
 H                    1    R4       2    A4       3    D4       0
 X                    5    R5       1    A5       2    D5       0
 H                    5    R6       6    A6       1    D6       0
       Variables:
  R1                    1.0828                   
  R2                    1.0828                   
  A2                  119.9147                   
  R3                    1.0828                   
  A3                  119.9166                   
  D3                  174.2689                   
  R4                    2.5672                   
  A4                   91.1846                   
  D4                  267.4882                   
  A6                   90.1933                   
  D6                  179.8355                   
       Constants:
  A5                   90.                       
  D5                  180.                       
  R5                    1.                       
  R6                    0.8829                   
 
 NAtoms=      6 NQM=        6 NQMF=       0 NMMI=      0 NMMIF=      0
                NMic=       0 NMicF=      0.
                    Isotopes and Nuclear Properties:
 (Nuclear quadrupole moments (NQMom) in fm**2, nuclear magnetic moments (NMagM)
  in nuclear magnetons)

  Atom         1           2           3           4           5           6
 IAtWgt=          12           1           1           1           1           1
 AtmWgt=  12.0000000   1.0078250   1.0078250   1.0078250   1.0078250   1.0078250
 NucSpn=           0           1           1           1           1           1
 AtZEff=   0.0000000   0.0000000   0.0000000   0.0000000   0.0000000   0.0000000
 NQMom=    0.0000000   0.0000000   0.0000000   0.0000000   0.0000000   0.0000000
 NMagM=    0.0000000   2.7928460   2.7928460   2.7928460   2.7928460   2.7928460
 AtZNuc=   6.0000000   1.0000000   1.0000000   1.0000000   1.0000000   1.0000000
 Leave Link  101 at Thu Sep  5 23:07:10 2019, MaxMem=  2684354560 cpu:         0.6
 (Enter /soft/gaussian/09-e.01/g09/l103.exe)

 GradGradGradGradGradGradGradGradGradGradGradGradGradGradGradGradGradGrad
 Berny optimization.
 Initialization pass.
                       ----------------------------
                       !    Initial Parameters    !
                       ! (Angstroms and Degrees)  !
 ----------------------                            ----------------------
 !      Name          Value   Derivative information (Atomic Units)     !
 ------------------------------------------------------------------------
 !       R1          1.0828   calculate D2E/DX2 analytically            !
 !       R2          1.0828   calculate D2E/DX2 analytically            !
 !       A2        119.9147   calculate D2E/DX2 analytically            !
 !       R3          1.0828   calculate D2E/DX2 analytically            !
 !       A3        119.9166   calculate D2E/DX2 analytically            !
 !       D3        174.2689   calculate D2E/DX2 analytically            !
 !       R4          2.5672   calculate D2E/DX2 analytically            !
 !       A4         91.1846   calculate D2E/DX2 analytically            !
 !       D4        267.4882   calculate D2E/DX2 analytically            !
 !       A6         90.1933   calculate D2E/DX2 analytically            !
 !       D6        179.8355   calculate D2E/DX2 analytically            !
 !       A5         90.0      frozen, calculate D2E/DX2 analytically    !
 !       D5        180.0      frozen, calculate D2E/DX2 analytically    !
 !       R5          1.0      frozen, calculate D2E/DX2 analytically    !
 !       R6          0.8829   frozen, calculate D2E/DX2 analytically    !
 ------------------------------------------------------------------------
 Trust Radius=3.00D-01 FncErr=1.00D-07 GrdErr=1.00D-06
 Number of steps in this run=     25 maximum allowed number of steps=    100.
 GradGradGradGradGradGradGradGradGradGradGradGradGradGradGradGradGradGrad

 Leave Link  103 at Thu Sep  5 23:07:10 2019, MaxMem=  2684354560 cpu:         0.1
 (Enter /soft/gaussian/09-e.01/g09/l202.exe)
 ---------------------------------------------------------------------------------------------------
                            Z-MATRIX (ANGSTROMS AND DEGREES)
   CD    Cent   Atom    N1       Length/X        N2       Alpha/Y        N3        Beta/Z          J
 ---------------------------------------------------------------------------------------------------
      1      1  C 
      2      2  H        1   1.082800(     1)
      3      3  H        1   1.082800(     2)      2  119.915(     7)
      4      4  H        1   1.082800(     3)      2  119.917(     8)      3  174.269(    12)      0
      5      5  H        1   2.567200(     4)      2   91.185(     9)      3  267.488(    13)      0
      6         X        5   1.000000(     5)      1   90.000(    10)      2  180.000(    14)      0
      7      6  H        5   0.882900(     6)      6   90.193(    11)      1  179.836(    15)      0
 ---------------------------------------------------------------------------------------------------
                         Z-Matrix orientation:                         
 ---------------------------------------------------------------------
 Center     Atomic      Atomic             Coordinates (Angstroms)
 Number     Number       Type             X           Y           Z
 ---------------------------------------------------------------------
      1          6           0        0.000000    0.000000    0.000000
      2          1           0        0.000000    0.000000    1.082800
      3          1           0        0.938537    0.000000   -0.540003
      4          1           0       -0.933828   -0.093720   -0.540034
      5          1           0       -0.112484    2.564185   -0.053074
      6         -1           0       -0.111578    2.543531   -1.052860
      7          1           0       -0.148639    3.446213   -0.068348
 ---------------------------------------------------------------------
                    Distance matrix (angstroms):
                    1          2          3          4          5
     1  C    0.000000
     2  H    1.082800   0.000000
     3  H    1.082800   1.874658   0.000000
     4  H    1.082800   1.874676   1.874710   0.000000
     5  H    2.567200   2.806761   2.813680   2.824217   0.000000
     6  X    2.755089   3.323108   2.799163   2.809659   1.000000
     7  H    3.450094   3.636429   3.644282   3.656520   0.882900
                    6          7
     6  X    0.000000
     7  H    1.336215   0.000000
 Stoichiometry    CH5(2)
 Framework group  C1[X(CH5)]
 Deg. of freedom    12
 Full point group                 C1      NOp   1
 Largest Abelian subgroup         C1      NOp   1
 Largest concise Abelian subgroup C1      NOp   1
                         Standard orientation:                         
 ---------------------------------------------------------------------
 Center     Atomic      Atomic             Coordinates (Angstroms)
 Number     Number       Type             X           Y           Z
 ---------------------------------------------------------------------
      1          6           0        0.538492    0.000166    0.000680
      2          1           0        0.559067   -0.435781    0.991630
      3          1           0        0.568118    1.076186   -0.116618
      4          1           0        0.582163   -0.639640   -0.871786
      5          1           0       -2.028702   -0.001206   -0.004615
      6          1           0       -2.911600   -0.000557   -0.002689
 ---------------------------------------------------------------------
 Rotational constants (GHZ):    142.6940574     27.5850719     27.5846912
 Leave Link  202 at Thu Sep  5 23:07:10 2019, MaxMem=  2684354560 cpu:         0.2
 (Enter /soft/gaussian/09-e.01/g09/l301.exe)
 Standard basis: 6-31G(d) (6D, 7F)
 Ernie: Thresh=  0.10000D-02 Tol=  0.10000D-05 Strict=F.
 There are    25 symmetry adapted cartesian basis functions of A   symmetry.
 There are    25 symmetry adapted basis functions of A   symmetry.
    25 basis functions,    48 primitive gaussians,    25 cartesian basis functions
     6 alpha electrons        5 beta electrons
       nuclear repulsion energy        13.3994986771 Hartrees.
 IExCor=  402 DFT=T Ex+Corr=B3LYP ExCW=0 ScaHFX=  0.200000
 ScaDFX=  0.800000  0.720000  1.000000  0.810000 ScalE2=  1.000000  1.000000
 IRadAn=      5 IRanWt=     -1 IRanGd=            0 ICorTp=0 IEmpDi=  4
 NAtoms=    6 NActive=    6 NUniq=    6 SFac= 1.00D+00 NAtFMM=   60 NAOKFM=F Big=F
 Integral buffers will be    131072 words long.
 Raffenetti 2 integral format.
 Two-electron integral symmetry is turned on.
 Leave Link  301 at Thu Sep  5 23:07:11 2019, MaxMem=  2684354560 cpu:         0.6
 (Enter /soft/gaussian/09-e.01/g09/l302.exe)
 NPDir=0 NMtPBC=     1 NCelOv=     1 NCel=       1 NClECP=     1 NCelD=      1
         NCelK=      1 NCelE2=     1 NClLst=     1 CellRange=     0.0.
 One-electron integrals computed using PRISM.
 NBasis=    25 RedAO= T EigKep=  2.62D-02  NBF=    25
 NBsUse=    25 1.00D-06 EigRej= -1.00D+00 NBFU=    25
 Precomputing XC quadrature grid using
 IXCGrd= 4 IRadAn=           5 IRanWt=          -1 IRanGd=           0 AccXCQ= 0.00D+00.
 Generated NRdTot=       0 NPtTot=           0 NUsed=           0 NTot=          32
 NSgBfM=    25    25    25    25    25 MxSgAt=     6 MxSgA2=     6.
 Leave Link  302 at Thu Sep  5 23:07:11 2019, MaxMem=  2684354560 cpu:         1.8
 (Enter /soft/gaussian/09-e.01/g09/l303.exe)
 DipDrv:  MaxL=1.
 Leave Link  303 at Thu Sep  5 23:07:11 2019, MaxMem=  2684354560 cpu:         0.2
 (Enter /soft/gaussian/09-e.01/g09/l401.exe)
 ExpMin= 1.61D-01 ExpMax= 3.05D+03 ExpMxC= 4.57D+02 IAcc=3 IRadAn=         5 AccDes= 0.00D+00
 Harris functional with IExCor=  402 and IRadAn=       5 diagonalized for initial guess.
 HarFok:  IExCor=  402 AccDes= 0.00D+00 IRadAn=         5 IDoV= 1 UseB2=F ITyADJ=14
 ICtDFT=  3500011 ScaDFX=  1.000000  1.000000  1.000000  1.000000
 FoFCou: FMM=F IPFlag=           0 FMFlag=      100000 FMFlg1=           0
         NFxFlg=           0 DoJE=T BraDBF=F KetDBF=T FulRan=T
         wScrn=  0.000000 ICntrl=     500 IOpCl=  0 I1Cent=   200000004 NGrid=           0
         NMat0=    1 NMatS0=      1 NMatT0=    0 NMatD0=    1 NMtDS0=    0 NMtDT0=    0
 Petite list used in FoFCou.
 Harris En= -40.9983185077173    
 JPrj=0 DoOrth=F DoCkMO=F.
 Initial guess <Sx>= 0.0000 <Sy>= 0.0000 <Sz>= 0.5000 <S**2>= 0.7500 S= 0.5000
 Leave Link  401 at Thu Sep  5 23:07:11 2019, MaxMem=  2684354560 cpu:         1.9
 (Enter /soft/gaussian/09-e.01/g09/l502.exe)
 UHF open shell SCF:
 Using DIIS extrapolation, IDIIS=  1040.
 Integral symmetry usage will be decided dynamically.
 Keep R1 and R2 ints in memory in canonical form, NReq=976418.
 IVT=        8268 IEndB=        8268 NGot=  2684354560 MDV=  2684240343
 LenX=  2684240343 LenY=  2684239277
 Requested convergence on RMS density matrix=1.00D-08 within  64 cycles.
 Requested convergence on MAX density matrix=1.00D-06.
 Requested convergence on             energy=1.00D-06.
 No special actions if energy rises.
 FoFCou: FMM=F IPFlag=           0 FMFlag=           0 FMFlg1=           0
         NFxFlg=           0 DoJE=F BraDBF=F KetDBF=F FulRan=T
         wScrn=  0.000000 ICntrl=     600 IOpCl=  0 I1Cent=           0 NGrid=           0
         NMat0=    1 NMatS0=    325 NMatT0=    0 NMatD0=    1 NMtDS0=    0 NMtDT0=    0
 Symmetry not used in FoFCou.
 Integral accuracy reduced to 1.0D-05 until final iterations.

 Cycle   1  Pass 0  IDiag  1:
 E= -40.9589933312543    
 DIIS: error= 5.30D-02 at cycle   1 NSaved=   1.
 NSaved= 1 IEnMin= 1 EnMin= -40.9589933312543     IErMin= 1 ErrMin= 5.30D-02
 ErrMax= 5.30D-02  0.00D+00 EMaxC= 1.00D-01 BMatC= 1.53D-01 BMatP= 1.53D-01
 IDIUse=3 WtCom= 4.70D-01 WtEn= 5.30D-01
 Coeff-Com:  0.100D+01
 Coeff-En:   0.100D+01
 Coeff:      0.100D+01
 Gap=     0.228 Goal=   None    Shift=    0.000
 Gap=     0.431 Goal=   None    Shift=    0.000
 GapD=    0.228 DampG=1.000 DampE=0.500 DampFc=0.5000 IDamp=-1.
 Damping current iteration by 5.00D-01
 RMSDP=1.44D-02 MaxDP=1.54D-01              OVMax= 1.40D-01

 Cycle   2  Pass 0  IDiag  1:
 E= -40.9815250407899     Delta-E=       -0.022531709536 Rises=F Damp=T
 DIIS: error= 9.54D-03 at cycle   2 NSaved=   2.
 NSaved= 2 IEnMin= 2 EnMin= -40.9815250407899     IErMin= 2 ErrMin= 9.54D-03
 ErrMax= 9.54D-03  0.00D+00 EMaxC= 1.00D-01 BMatC= 6.70D-03 BMatP= 1.53D-01
 IDIUse=3 WtCom= 9.05D-01 WtEn= 9.54D-02
 Coeff-Com: -0.572D-02 0.101D+01
 Coeff-En:   0.000D+00 0.100D+01
 Coeff:     -0.517D-02 0.101D+01
 Gap=     0.309 Goal=   None    Shift=    0.000
 Gap=     0.355 Goal=   None    Shift=    0.000
 RMSDP=2.25D-03 MaxDP=1.73D-02 DE=-2.25D-02 OVMax= 9.06D-02

 Cycle   3  Pass 0  IDiag  1:
 E= -41.0048571394750     Delta-E=       -0.023332098685 Rises=F Damp=F
 DIIS: error= 2.10D-03 at cycle   3 NSaved=   3.
 NSaved= 3 IEnMin= 3 EnMin= -41.0048571394750     IErMin= 3 ErrMin= 2.10D-03
 ErrMax= 2.10D-03  0.00D+00 EMaxC= 1.00D-01 BMatC= 2.15D-04 BMatP= 6.70D-03
 IDIUse=3 WtCom= 9.79D-01 WtEn= 2.10D-02
 Coeff-Com: -0.241D-01 0.694D-01 0.955D+00
 Coeff-En:   0.000D+00 0.000D+00 0.100D+01
 Coeff:     -0.236D-01 0.680D-01 0.956D+00
 Gap=     0.309 Goal=   None    Shift=    0.000
 Gap=     0.336 Goal=   None    Shift=    0.000
 RMSDP=3.50D-04 MaxDP=3.25D-03 DE=-2.33D-02 OVMax= 4.94D-03

 Cycle   4  Pass 0  IDiag  1:
 E= -41.0049489687113     Delta-E=       -0.000091829236 Rises=F Damp=F
 DIIS: error= 3.46D-04 at cycle   4 NSaved=   4.
 NSaved= 4 IEnMin= 4 EnMin= -41.0049489687113     IErMin= 4 ErrMin= 3.46D-04
 ErrMax= 3.46D-04  0.00D+00 EMaxC= 1.00D-01 BMatC= 1.06D-05 BMatP= 2.15D-04
 IDIUse=3 WtCom= 9.97D-01 WtEn= 3.46D-03
 Coeff-Com:  0.345D-02-0.258D-01-0.158D+00 0.118D+01
 Coeff-En:   0.000D+00 0.000D+00 0.000D+00 0.100D+01
 Coeff:      0.343D-02-0.257D-01-0.157D+00 0.118D+01
 Gap=     0.310 Goal=   None    Shift=    0.000
 Gap=     0.335 Goal=   None    Shift=    0.000
 RMSDP=1.44D-04 MaxDP=1.19D-03 DE=-9.18D-05 OVMax= 1.44D-03

 Cycle   5  Pass 0  IDiag  1:
 E= -41.0049568817389     Delta-E=       -0.000007913028 Rises=F Damp=F
 DIIS: error= 1.63D-04 at cycle   5 NSaved=   5.
 NSaved= 5 IEnMin= 5 EnMin= -41.0049568817389     IErMin= 5 ErrMin= 1.63D-04
 ErrMax= 1.63D-04  0.00D+00 EMaxC= 1.00D-01 BMatC= 9.83D-07 BMatP= 1.06D-05
 IDIUse=3 WtCom= 9.98D-01 WtEn= 1.63D-03
 Coeff-Com:  0.949D-03-0.244D-02-0.592D-01-0.898D-02 0.107D+01
 Coeff-En:   0.000D+00 0.000D+00 0.000D+00 0.000D+00 0.100D+01
 Coeff:      0.947D-03-0.243D-02-0.591D-01-0.897D-02 0.107D+01
 Gap=     0.309 Goal=   None    Shift=    0.000
 Gap=     0.336 Goal=   None    Shift=    0.000
 RMSDP=4.17D-05 MaxDP=3.12D-04 DE=-7.91D-06 OVMax= 5.80D-04

 Cycle   6  Pass 0  IDiag  1:
 E= -41.0049575233973     Delta-E=       -0.000000641658 Rises=F Damp=F
 DIIS: error= 7.03D-05 at cycle   6 NSaved=   6.
 NSaved= 6 IEnMin= 6 EnMin= -41.0049575233973     IErMin= 6 ErrMin= 7.03D-05
 ErrMax= 7.03D-05  0.00D+00 EMaxC= 1.00D-01 BMatC= 9.17D-08 BMatP= 9.83D-07
 IDIUse=1 WtCom= 1.00D+00 WtEn= 0.00D+00
 Coeff-Com: -0.793D-05 0.157D-02 0.756D-03-0.974D-01 0.215D+00 0.880D+00
 Coeff:     -0.793D-05 0.157D-02 0.756D-03-0.974D-01 0.215D+00 0.880D+00
 Gap=     0.309 Goal=   None    Shift=    0.000
 Gap=     0.336 Goal=   None    Shift=    0.000
 RMSDP=1.09D-05 MaxDP=1.14D-04 DE=-6.42D-07 OVMax= 2.11D-04

 Cycle   7  Pass 0  IDiag  1:
 E= -41.0049575765756     Delta-E=       -0.000000053178 Rises=F Damp=F
 DIIS: error= 1.15D-05 at cycle   7 NSaved=   7.
 NSaved= 7 IEnMin= 7 EnMin= -41.0049575765756     IErMin= 7 ErrMin= 1.15D-05
 ErrMax= 1.15D-05  0.00D+00 EMaxC= 1.00D-01 BMatC= 3.07D-09 BMatP= 9.17D-08
 IDIUse=1 WtCom= 1.00D+00 WtEn= 0.00D+00
 Coeff-Com:  0.661D-06 0.119D-03 0.312D-02-0.438D-02-0.409D-01 0.418D-01
 Coeff-Com:  0.100D+01
 Coeff:      0.661D-06 0.119D-03 0.312D-02-0.438D-02-0.409D-01 0.418D-01
 Coeff:      0.100D+01
 Gap=     0.310 Goal=   None    Shift=    0.000
 Gap=     0.336 Goal=   None    Shift=    0.000
 RMSDP=2.30D-06 MaxDP=2.55D-05 DE=-5.32D-08 OVMax= 3.78D-05

 Initial convergence to 1.0D-05 achieved.  Increase integral accuracy.
 Cycle   8  Pass 1  IDiag  1:
 E= -41.0049578404687     Delta-E=       -0.000000263893 Rises=F Damp=F
 DIIS: error= 3.29D-06 at cycle   1 NSaved=   1.
 NSaved= 1 IEnMin= 1 EnMin= -41.0049578404687     IErMin= 1 ErrMin= 3.29D-06
 ErrMax= 3.29D-06  0.00D+00 EMaxC= 1.00D-01 BMatC= 3.70D-10 BMatP= 3.70D-10
 IDIUse=1 WtCom= 1.00D+00 WtEn= 0.00D+00
 Coeff-Com:  0.100D+01
 Coeff:      0.100D+01
 Gap=     0.310 Goal=   None    Shift=    0.000
 Gap=     0.336 Goal=   None    Shift=    0.000
 RMSDP=2.30D-06 MaxDP=2.55D-05 DE=-2.64D-07 OVMax= 1.22D-05

 Cycle   9  Pass 1  IDiag  1:
 E= -41.0049578407589     Delta-E=       -0.000000000290 Rises=F Damp=F
 DIIS: error= 1.79D-06 at cycle   2 NSaved=   2.
 NSaved= 2 IEnMin= 2 EnMin= -41.0049578407589     IErMin= 2 ErrMin= 1.79D-06
 ErrMax= 1.79D-06  0.00D+00 EMaxC= 1.00D-01 BMatC= 6.86D-11 BMatP= 3.70D-10
 IDIUse=1 WtCom= 1.00D+00 WtEn= 0.00D+00
 Coeff-Com: -0.136D+00 0.114D+01
 Coeff:     -0.136D+00 0.114D+01
 Gap=     0.310 Goal=   None    Shift=    0.000
 Gap=     0.336 Goal=   None    Shift=    0.000
 RMSDP=3.79D-07 MaxDP=4.29D-06 DE=-2.90D-10 OVMax= 7.12D-06

 Cycle  10  Pass 1  IDiag  1:
 E= -41.0049578408310     Delta-E=       -0.000000000072 Rises=F Damp=F
 DIIS: error= 8.66D-07 at cycle   3 NSaved=   3.
 NSaved= 3 IEnMin= 3 EnMin= -41.0049578408310     IErMin= 3 ErrMin= 8.66D-07
 ErrMax= 8.66D-07  0.00D+00 EMaxC= 1.00D-01 BMatC= 1.64D-11 BMatP= 6.86D-11
 IDIUse=1 WtCom= 1.00D+00 WtEn= 0.00D+00
 Coeff-Com: -0.201D+00 0.265D-01 0.117D+01
 Coeff:     -0.201D+00 0.265D-01 0.117D+01
 Gap=     0.310 Goal=   None    Shift=    0.000
 Gap=     0.336 Goal=   None    Shift=    0.000
 RMSDP=2.43D-07 MaxDP=2.62D-06 DE=-7.21D-11 OVMax= 5.03D-06

 Cycle  11  Pass 1  IDiag  1:
 E= -41.0049578408491     Delta-E=       -0.000000000018 Rises=F Damp=F
 DIIS: error= 2.14D-07 at cycle   4 NSaved=   4.
 NSaved= 4 IEnMin= 4 EnMin= -41.0049578408491     IErMin= 4 ErrMin= 2.14D-07
 ErrMax= 2.14D-07  0.00D+00 EMaxC= 1.00D-01 BMatC= 2.25D-12 BMatP= 1.64D-11
 IDIUse=1 WtCom= 1.00D+00 WtEn= 0.00D+00
 Coeff-Com: -0.447D-01-0.113D+00 0.368D+00 0.789D+00
 Coeff:     -0.447D-01-0.113D+00 0.368D+00 0.789D+00
 Gap=     0.310 Goal=   None    Shift=    0.000
 Gap=     0.336 Goal=   None    Shift=    0.000
 RMSDP=5.71D-08 MaxDP=6.32D-07 DE=-1.82D-11 OVMax= 9.93D-07

 Cycle  12  Pass 1  IDiag  1:
 E= -41.0049578408502     Delta-E=       -0.000000000001 Rises=F Damp=F
 DIIS: error= 6.58D-08 at cycle   5 NSaved=   5.
 NSaved= 5 IEnMin= 5 EnMin= -41.0049578408502     IErMin= 5 ErrMin= 6.58D-08
 ErrMax= 6.58D-08  0.00D+00 EMaxC= 1.00D-01 BMatC= 3.14D-13 BMatP= 2.25D-12
 IDIUse=1 WtCom= 1.00D+00 WtEn= 0.00D+00
 Coeff-Com:  0.132D-01-0.515D-01-0.305D-01 0.305D+00 0.764D+00
 Coeff:      0.132D-01-0.515D-01-0.305D-01 0.305D+00 0.764D+00
 Gap=     0.310 Goal=   None    Shift=    0.000
 Gap=     0.336 Goal=   None    Shift=    0.000
 RMSDP=1.59D-08 MaxDP=1.56D-07 DE=-1.05D-12 OVMax= 2.49D-07

 Cycle  13  Pass 1  IDiag  1:
 E= -41.0049578408503     Delta-E=       -0.000000000000 Rises=F Damp=F
 DIIS: error= 9.05D-09 at cycle   6 NSaved=   6.
 NSaved= 6 IEnMin= 6 EnMin= -41.0049578408503     IErMin= 6 ErrMin= 9.05D-09
 ErrMax= 9.05D-09  0.00D+00 EMaxC= 1.00D-01 BMatC= 2.15D-15 BMatP= 3.14D-13
 IDIUse=1 WtCom= 1.00D+00 WtEn= 0.00D+00
 Coeff-Com:  0.255D-02-0.512D-02-0.111D-01 0.280D-01 0.119D+00 0.867D+00
 Coeff:      0.255D-02-0.512D-02-0.111D-01 0.280D-01 0.119D+00 0.867D+00
 Gap=     0.310 Goal=   None    Shift=    0.000
 Gap=     0.336 Goal=   None    Shift=    0.000
 RMSDP=1.60D-09 MaxDP=1.86D-08 DE=-1.14D-13 OVMax= 3.43D-08

 SCF Done:  E(UB3LYP) =  -41.0049578409     A.U. after   13 cycles
            NFock= 13  Conv=0.16D-08     -V/T= 2.0131
 <Sx>= 0.0000 <Sy>= 0.0000 <Sz>= 0.5000 <S**2>= 0.7538 S= 0.5019
 <L.S>= 0.000000000000E+00
 KE= 4.047399854877D+01 PE=-1.206992282456D+02 EE= 2.582077317886D+01
 Annihilation of the first spin contaminant:
 S**2 before annihilation     0.7538,   after     0.7500
 Leave Link  502 at Thu Sep  5 23:07:12 2019, MaxMem=  2684354560 cpu:         6.9
 (Enter /soft/gaussian/09-e.01/g09/l508.exe)
 QCSCF skips out because SCF is already converged.
 Leave Link  508 at Thu Sep  5 23:07:12 2019, MaxMem=  2684354560 cpu:         0.0
 (Enter /soft/gaussian/09-e.01/g09/l801.exe)
 DoSCS=F DFT=T ScalE2(SS,OS)=  1.000000  1.000000
 Range of M.O.s used for correlation:     1    25
 NBasis=    25 NAE=     6 NBE=     5 NFC=     0 NFV=     0
 NROrb=     25 NOA=     6 NOB=     5 NVA=    19 NVB=    20
 Leave Link  801 at Thu Sep  5 23:07:12 2019, MaxMem=  2684354560 cpu:         0.3
 (Enter /soft/gaussian/09-e.01/g09/l1101.exe)
 Using compressed storage, NAtomX=     6.
 Will process      7 centers per pass.
 Leave Link 1101 at Thu Sep  5 23:07:13 2019, MaxMem=  2684354560 cpu:         2.1
 (Enter /soft/gaussian/09-e.01/g09/l1102.exe)
 Symmetrizing basis deriv contribution to polar:
 IMax=3 JMax=2 DiffMx= 0.00D+00
 Leave Link 1102 at Thu Sep  5 23:07:13 2019, MaxMem=  2684354560 cpu:         0.8
 (Enter /soft/gaussian/09-e.01/g09/l1110.exe)
 Forming Gx(P) for the SCF density, NAtomX=     6.
 Integral derivatives from FoFJK, PRISM(SPDF).
 Do as many integral derivatives as possible in FoFJK.
 G2DrvN: MDV=    2684354408.
 G2DrvN: will do     7 centers at a time, making    1 passes.
 Calling FoFCou, ICntrl=  3107 FMM=F I1Cent=   0 AccDes= 0.00D+00.
 FoFJK:  IHMeth= 1 ICntrl=    3107 DoSepK=F KAlg= 0 I1Cent=   0 FoldK=F
 IRaf=         0 NMat=   1 IRICut=       1 DoRegI=T DoRafI=F ISym2E= 0.
 FoFCou: FMM=F IPFlag=           0 FMFlag=      100000 FMFlg1=           0
         NFxFlg=           0 DoJE=F BraDBF=F KetDBF=F FulRan=T
         wScrn=  0.000000 ICntrl=    3107 IOpCl=  1 I1Cent=           0 NGrid=           0
         NMat0=    1 NMatS0=      1 NMatT0=    0 NMatD0=    1 NMtDS0=    0 NMtDT0=    0
 Symmetry not used in FoFCou.
 End of G2Drv F.D. properties file   721 does not exist.
 End of G2Drv F.D. properties file   722 does not exist.
 End of G2Drv F.D. properties file   788 does not exist.
 Leave Link 1110 at Thu Sep  5 23:07:15 2019, MaxMem=  2684354560 cpu:        10.8
 (Enter /soft/gaussian/09-e.01/g09/l1002.exe)
 Minotr:  UHF open shell wavefunction.
          IDoAtm=111111
          Direct CPHF calculation.
          Differentiating once with respect to nuclear coordinates.
          Requested convergence is 1.0D-08 RMS, and 1.0D-07 maximum.
          Secondary convergence is 1.0D-12 RMS, and 1.0D-12 maximum.
          NewPWx=T KeepS1=F KeepF1=F KeepIn=T MapXYZ=F SortEE=F KeepMc=T.
          MDV=    2684354446 using IRadAn=       1.
 Generate precomputed XC quadrature information.
 Keep R1 and R2 ints in memory in canonical form, NReq=967166.
 FoFCou: FMM=F IPFlag=           0 FMFlag=           0 FMFlg1=           0
         NFxFlg=           0 DoJE=F BraDBF=F KetDBF=F FulRan=T
         wScrn=  0.000000 ICntrl=     600 IOpCl=  0 I1Cent=           0 NGrid=           0
         NMat0=    1 NMatS0=    325 NMatT0=    0 NMatD0=    1 NMtDS0=    0 NMtDT0=    0
 Symmetry not used in FoFCou.
          Solving linear equations simultaneously, MaxMat=       0.
          There are    21 degrees of freedom in the 1st order CPHF.  IDoFFX=6 NUNeed=     0.
     15 vectors produced by pass  0 Test12= 1.02D-15 4.76D-09 XBig12= 9.28D-02 1.40D-01.
 AX will form    15 AO Fock derivatives at one time.
     15 vectors produced by pass  1 Test12= 1.02D-15 4.76D-09 XBig12= 4.09D-03 4.43D-02.
     15 vectors produced by pass  2 Test12= 1.02D-15 4.76D-09 XBig12= 2.68D-04 8.01D-03.
     15 vectors produced by pass  3 Test12= 1.02D-15 4.76D-09 XBig12= 3.43D-06 7.04D-04.
     13 vectors produced by pass  4 Test12= 1.02D-15 4.76D-09 XBig12= 3.18D-09 1.71D-05.
     10 vectors produced by pass  5 Test12= 1.02D-15 4.76D-09 XBig12= 3.11D-12 4.45D-07.
      2 vectors produced by pass  6 Test12= 1.02D-15 4.76D-09 XBig12= 3.62D-15 1.40D-08.
 InvSVY:  IOpt=1 It=  1 EMax= 1.33D-15
 Solved reduced A of dimension    85 with    15 vectors.
 End of Minotr F.D. properties file   721 does not exist.
 End of Minotr F.D. properties file   722 does not exist.
 End of Minotr F.D. properties file   788 does not exist.
 Leave Link 1002 at Thu Sep  5 23:07:16 2019, MaxMem=  2684354560 cpu:         6.2
 (Enter /soft/gaussian/09-e.01/g09/l601.exe)
 Copying SCF densities to generalized density rwf, IOpCl= 1 IROHF=0.

 **********************************************************************

            Population analysis using the SCF density.

 **********************************************************************

 Orbital symmetries:
 Alpha Orbitals:
       Occupied  (A) (A) (A) (A) (A) (A)
       Virtual   (A) (A) (A) (A) (A) (A) (A) (A) (A) (A) (A) (A)
                 (A) (A) (A) (A) (A) (A) (A)
 Beta  Orbitals:
       Occupied  (A) (A) (A) (A) (A)
       Virtual   (A) (A) (A) (A) (A) (A) (A) (A) (A) (A) (A) (A)
                 (A) (A) (A) (A) (A) (A) (A) (A)
 The electronic state is 2-A.
 Alpha  occ. eigenvalues --  -10.19785  -0.68693  -0.42148  -0.42147  -0.40086
 Alpha  occ. eigenvalues --   -0.22876
 Alpha virt. eigenvalues --    0.08075   0.11328   0.17837   0.17837   0.53984
 Alpha virt. eigenvalues --    0.53985   0.55133   0.62363   0.78554   0.90952
 Alpha virt. eigenvalues --    0.90953   0.96129   1.12159   1.64431   1.64432
 Alpha virt. eigenvalues --    2.00513   2.18173   2.18177   4.09122
  Beta  occ. eigenvalues --  -10.18398  -0.64705  -0.41202  -0.41201  -0.39740
  Beta virt. eigenvalues --   -0.06168   0.09300   0.12951   0.18386   0.18387
  Beta virt. eigenvalues --    0.54800   0.54801   0.60555   0.64945   0.80407
  Beta virt. eigenvalues --    0.91439   0.91439   0.98673   1.12759   1.71415
  Beta virt. eigenvalues --    1.71415   2.08988   2.19294   2.19298   4.12797
          Condensed to atoms (all electrons):
               1          2          3          4          5          6
     1  C    5.337435   0.380005   0.380007   0.380009   0.015184  -0.006039
     2  H    0.380005   0.510272  -0.029402  -0.029397   0.000030   0.000036
     3  H    0.380007  -0.029402   0.510290  -0.029391   0.000027   0.000038
     4  H    0.380009  -0.029397  -0.029391   0.510327   0.000024   0.000041
     5  H    0.015184   0.000030   0.000027   0.000024   0.612610   0.367476
     6  H   -0.006039   0.000036   0.000038   0.000041   0.367476   0.661769
          Atomic-Atomic Spin Densities.
               1          2          3          4          5          6
     1  C    1.144726  -0.009038  -0.009034  -0.009028   0.012837  -0.006574
     2  H   -0.009038  -0.043066   0.000966   0.000966  -0.000069   0.000022
     3  H   -0.009034   0.000966  -0.043074   0.000965  -0.000068   0.000022
     4  H   -0.009028   0.000966   0.000965  -0.043086  -0.000068   0.000021
     5  H    0.012837  -0.000069  -0.000068  -0.000068  -0.016094  -0.009462
     6  H   -0.006574   0.000022   0.000022   0.000021  -0.009462   0.055675
 Mulliken charges and spin densities:
               1          2
     1  C   -0.486600   1.123891
     2  H    0.168456  -0.050218
     3  H    0.168430  -0.050223
     4  H    0.168386  -0.050229
     5  H    0.004649  -0.012924
     6  H   -0.023321   0.039703
 Sum of Mulliken charges =  -0.00000   1.00000
 Mulliken charges and spin densities with hydrogens summed into heavy atoms:
               1          2
     1  C   -0.000000   1.000000
 APT charges:
               1
     1  C   -1.061671
     2  H    0.357875
     3  H    0.358513
     4  H    0.359495
     5  H   -0.572814
     6  H    0.558603
 Sum of APT charges =  -0.00000
 APT charges with hydrogens summed into heavy atoms:
               1
     1  C   -0.000000
 Electronic spatial extent (au):  <R**2>=             88.9316
 Charge=             -0.0000 electrons
 Dipole moment (field-independent basis, Debye):
    X=              0.3791    Y=              0.0003    Z=              0.0014  Tot=              0.3791
 Quadrupole moment (field-independent basis, Debye-Ang):
   XX=            -10.8720   YY=             -9.1705   ZZ=             -9.1708
   XY=             -0.0051   XZ=             -0.0211   YZ=             -0.0001
 Traceless Quadrupole moment (field-independent basis, Debye-Ang):
   XX=             -1.1342   YY=              0.5673   ZZ=              0.5670
   XY=             -0.0051   XZ=             -0.0211   YZ=             -0.0001
 Octapole moment (field-independent basis, Debye-Ang**2):
  XXX=              0.9243  YYY=              0.7798  ZZZ=              0.2736  XYY=              1.7571
  XXY=             -0.0032  XXZ=             -0.0148  XZZ=              1.7550  YZZ=             -0.7764
  YYZ=             -0.2602  XYZ=              0.0102
 Hexadecapole moment (field-independent basis, Debye-Ang**3):
 XXXX=            -96.8295 YYYY=            -15.9535 ZZZZ=            -15.9529 XXXY=             -0.0161
 XXXZ=             -0.0587 YYYX=              0.4414 YYYZ=              0.0006 ZZZX=              0.1047
 ZZZY=             -0.0030 XXYY=            -20.7627 XXZZ=            -20.7648 YYZZ=             -5.3192
 XXYZ=              0.0119 YYXZ=             -0.1699 ZZXY=             -0.4569
 N-N= 1.339949867714D+01 E-N=-1.206992282197D+02  KE= 4.047399854877D+01
  Exact polarizability:   0.000   0.000   0.000   0.000   0.000   0.000
 Approx polarizability:  23.410  -0.028  13.754  -0.108  -0.000  13.753
                          Isotropic Fermi Contact Couplings
        Atom                 a.u.       MegaHertz       Gauss      10(-4) cm-1
     1  C(13)              0.10817     121.60728      43.39250      40.56382
     2  H(1)              -0.01546     -69.11746     -24.66283     -23.05510
     3  H(1)              -0.01546     -69.11870     -24.66327     -23.05552
     4  H(1)              -0.01546     -69.11967     -24.66362     -23.05584
     5  H(1)              -0.00441     -19.72148      -7.03712      -6.57838
     6  H(1)               0.01271      56.82409      20.27625      18.95448
 --------------------------------------------------------
       Center         ----  Spin Dipole Couplings  ----
                      3XX-RR        3YY-RR        3ZZ-RR
 --------------------------------------------------------
     1   Atom        1.074871     -0.537547     -0.537324
     2   Atom       -0.005553     -0.047437      0.052990
     3   Atom       -0.005524      0.075313     -0.069789
     4   Atom       -0.005438     -0.019614      0.025052
     5   Atom        0.033183     -0.016591     -0.016592
     6   Atom        0.006204     -0.003102     -0.003102
 --------------------------------------------------------
                        XY            XZ            YZ
 --------------------------------------------------------
     1   Atom        0.004626      0.019490      0.000055
     2   Atom       -0.000357      0.002038     -0.054796
     3   Atom        0.002776      0.000515     -0.016028
     4   Atom       -0.002493     -0.002861      0.070824
     5   Atom       -0.000007     -0.000026      0.000002
     6   Atom        0.000001      0.000001      0.000000
 --------------------------------------------------------


 ---------------------------------------------------------------------------------
              Anisotropic Spin Dipole Couplings in Principal Axis System
 ---------------------------------------------------------------------------------

       Atom             a.u.   MegaHertz   Gauss  10(-4) cm-1        Axes

              Baa    -0.5376   -72.136   -25.740   -24.062 -0.0073  0.9230  0.3846
     1 C(13)  Bbb    -0.5376   -72.135   -25.740   -24.062 -0.0101 -0.3847  0.9230
              Bcc     1.0751   144.271    51.479    48.124  0.9999  0.0029  0.0121
 
              Baa    -0.0716   -38.176   -13.622   -12.734 -0.0075  0.9153  0.4028
     2 H(1)   Bbb    -0.0056    -2.987    -1.066    -0.996  0.9997  0.0166 -0.0192
              Bcc     0.0771    41.163    14.688    13.730  0.0243 -0.4025  0.9151
 
              Baa    -0.0715   -38.175   -13.622   -12.734 -0.0123  0.1087  0.9940
     3 H(1)   Bbb    -0.0056    -2.989    -1.067    -0.997  0.9994 -0.0312  0.0158
              Bcc     0.0772    41.164    14.688    13.731  0.0327  0.9936 -0.1083
 
              Baa    -0.0715   -38.172   -13.621   -12.733  0.0048  0.8065 -0.5912
     4 H(1)   Bbb    -0.0056    -2.993    -1.068    -0.998  0.9989  0.0231  0.0397
              Bcc     0.0772    41.166    14.689    13.731 -0.0457  0.5908  0.8056
 
              Baa    -0.0166    -8.853    -3.159    -2.953  0.0003 -0.6768  0.7362
     5 H(1)   Bbb    -0.0166    -8.851    -3.158    -2.953  0.0005  0.7362  0.6768
              Bcc     0.0332    17.705     6.318     5.906  1.0000 -0.0001 -0.0005
 
              Baa    -0.0031    -1.655    -0.591    -0.552 -0.0000 -0.6767  0.7362
     6 H(1)   Bbb    -0.0031    -1.655    -0.591    -0.552 -0.0001  0.7362  0.6767
              Bcc     0.0062     3.310     1.181     1.104  1.0000  0.0001  0.0001
 

 ---------------------------------------------------------------------------------

 No NMR shielding tensors so no spin-rotation constants.
 Leave Link  601 at Thu Sep  5 23:07:17 2019, MaxMem=  2684354560 cpu:         2.8
 (Enter /soft/gaussian/09-e.01/g09/l701.exe)
 Compute integral second derivatives.
 ... and contract with generalized density number  0.
 Leave Link  701 at Thu Sep  5 23:07:17 2019, MaxMem=  2684354560 cpu:         2.2
 (Enter /soft/gaussian/09-e.01/g09/l702.exe)
 L702 exits ... SP integral derivatives will be done elsewhere.
 Leave Link  702 at Thu Sep  5 23:07:17 2019, MaxMem=  2684354560 cpu:         0.2
 (Enter /soft/gaussian/09-e.01/g09/l703.exe)
 Compute integral second derivatives, UseDBF=F ICtDFT=           0.
 Integral derivatives from FoFJK, PRISM(SPDF).
 Calling FoFJK, ICntrl=    100147 FMM=F ISym2X=0 I1Cent= 0 IOpClX= 1 NMat=1 NMatS=1 NMatT=0.
 FoFJK:  IHMeth= 1 ICntrl=  100147 DoSepK=F KAlg= 0 I1Cent=   0 FoldK=F
 IRaf=         0 NMat=   1 IRICut=       1 DoRegI=T DoRafI=F ISym2E= 0.
 FoFCou: FMM=F IPFlag=           0 FMFlag=      100000 FMFlg1=         800
         NFxFlg=           0 DoJE=F BraDBF=F KetDBF=F FulRan=T
         wScrn=  0.000000 ICntrl=  100147 IOpCl=  1 I1Cent=           0 NGrid=           0
         NMat0=    1 NMatS0=      1 NMatT0=    0 NMatD0=    1 NMtDS0=    0 NMtDT0=    0
 Symmetry not used in FoFCou.
 Leave Link  703 at Thu Sep  5 23:07:18 2019, MaxMem=  2684354560 cpu:         9.7
 (Enter /soft/gaussian/09-e.01/g09/l716.exe)
 Dipole        = 1.49148525D-01 1.23855368D-04 5.35685580D-04
 Polarizability= 0.00000000D+00 0.00000000D+00 0.00000000D+00
                 0.00000000D+00 0.00000000D+00 0.00000000D+00
 ***** Axes restored to original set *****
 -------------------------------------------------------------------
 Center     Atomic                   Forces (Hartrees/Bohr)
 Number     Number              X              Y              Z
 -------------------------------------------------------------------
      1        6           0.000007375   -0.000020046    0.000012344
      2        1          -0.000000175   -0.000002872    0.000023758
      3        1           0.000019492    0.000007379   -0.000014321
      4        1          -0.000022471    0.000020115   -0.000015444
      5        1          -0.002557875    0.062371744   -0.001083236
      6        1           0.002553653   -0.062376319    0.001076900
 -------------------------------------------------------------------
 Cartesian Forces:  Max     0.062376319 RMS     0.020811908
 -----------------------------------------------------------------------------------------------
                       Internal Coordinate Forces (Hartree/Bohr or radian)
  Cent   Atom   N1       Length/X         N2         Alpha/Y        N3         Beta/Z          J
 -----------------------------------------------------------------------------------------------
      1  C 
      2  H        1   0.000024(     1)
      3  H        1   0.000024(     2)      2   0.000006(     7)
      4  H        1   0.000025(     3)      2   0.000007(     8)      3   0.000039(    12)     0
      5  H        1  -0.000004(     4)      2   0.000037(     9)      3  -0.000027(    13)     0
         X        5  -0.000000(     5)      1  -0.000006(    10)      2  -0.000000(    14)     0
      6  H        5  -0.062438(     6)      6  -0.000006(    11)      1   0.000005(    15)     0
 -----------------------------------------------------------------------------------------------
 Internal  Forces:  Max     0.062437857 RMS     0.016121397
 Force constants in Cartesian coordinates: 
                1             2             3             4             5 
      1  0.625413D+00
      2  0.301167D-01  0.249678D-01
      3 -0.864827D-03  0.174113D-01  0.626365D+00
      4 -0.565150D-01 -0.246328D-02 -0.781811D-04  0.467971D-01
      5 -0.245726D-02 -0.746981D-02  0.151158D-02  0.218546D-02  0.326990D-02
      6  0.737166D-04 -0.150080D-02 -0.361357D+00 -0.449824D-04  0.931379D-03
      7 -0.285549D+00 -0.253259D-02  0.131855D+00  0.489269D-02  0.159413D-04
      8  0.857927D-04 -0.748065D-02 -0.288121D-02 -0.168391D-03  0.228778D-02
      9  0.131701D+00 -0.138566D-02 -0.132334D+00  0.243307D-01 -0.201859D-03
     10 -0.283011D+00 -0.251102D-01 -0.130911D+00  0.485295D-02  0.239208D-03
     11 -0.277308D-01 -0.100271D-01 -0.160365D-01  0.424834D-03  0.233067D-02
     12 -0.130910D+00 -0.145255D-01 -0.132338D+00 -0.241890D-01 -0.262811D-02
     13 -0.700635D-03 -0.227930D-03  0.000000D+00  0.602008D-05  0.317928D-04
     14 -0.246592D-03  0.490107D-02 -0.116172D-03  0.397980D-04 -0.752301D-03
     15  0.000000D+00 -0.912468D-04 -0.698188D-03 -0.255229D-04  0.547891D-03
     16  0.363085D-03  0.217353D-03 -0.121329D-05 -0.337713D-04 -0.151497D-04
     17  0.232185D-03 -0.489139D-02  0.111016D-03 -0.184277D-04  0.333766D-03
     18  0.000000D+00  0.918578D-04  0.361745D-03  0.695031D-05 -0.160881D-03
                6             7             8             9            10 
      6  0.375647D+00
      7 -0.344518D-02  0.293825D+00
      8  0.114382D-03  0.189830D-02  0.326539D-02
      9 -0.712457D-02 -0.142180D+00  0.143010D-02  0.128629D+00
     10  0.341635D-02 -0.131224D-01 -0.215780D-02 -0.138442D-01  0.291296D+00
     11  0.457778D-03  0.608327D-03  0.232825D-02  0.138118D-03  0.270039D-01
     12 -0.712448D-02  0.137604D-01  0.151777D-02  0.108537D-01  0.141331D+00
     13  0.149283D-05 -0.157027D-03  0.491961D-03  0.683359D-04 -0.113588D-03
     14 -0.304695D-04 -0.805732D-05 -0.723258D-03  0.501153D-04  0.677372D-04
     15 -0.199134D-03  0.942500D-04 -0.252682D-03 -0.363086D-04 -0.663182D-04
     16 -0.139172D-05  0.111184D-03 -0.149870D-03 -0.762985D-04  0.982851D-04
     17  0.277282D-04  0.180728D-04  0.322490D-03 -0.308183D-04 -0.428577D-04
     18  0.157989D-03 -0.842912D-04  0.716380D-04  0.121673D-04  0.748050D-04
               11            12            13            14            15 
     11  0.577408D-02
     12  0.156201D-01  0.128634D+00
     13 -0.442466D-03 -0.681144D-04  0.404039D-01
     14 -0.721605D-03  0.403868D-04 -0.405057D-02  0.139055D+00
     15 -0.260378D-03 -0.376614D-04  0.701465D-04 -0.171475D-02  0.402681D-01
     16  0.136167D-03  0.757000D-04 -0.394386D-01  0.419769D-02 -0.726985D-04
     17  0.315661D-03 -0.246446D-04  0.419722D-02 -0.141759D+00  0.177116D-02
     18  0.809435D-04  0.123598D-04 -0.726855D-04  0.177089D-02 -0.392969D-01
               16            17            18 
     16  0.388998D-01
     17 -0.438619D-02  0.145678D+00
     18  0.759021D-04 -0.185445D-02  0.387526D-01
 Force constants in internal coordinates: 
                1             2             3             4             5 
      1  0.375647D+00
      2  0.566918D-03  0.375658D+00
      3  0.567308D-03  0.566287D-03  0.375655D+00
      4 -0.189180D-05  0.000000D+00  0.381651D-05  0.121851D-02
      5  0.000000D+00  0.000000D+00  0.000000D+00  0.000000D+00  0.000000D+00
      6  0.250245D-04  0.268680D-04  0.287529D-04  0.392899D-02  0.000000D+00
      7  0.161516D-01  0.948158D-04 -0.160453D-01 -0.477365D-04  0.000000D+00
      8  0.161512D-01 -0.160453D-01  0.895978D-04 -0.420639D-04  0.000000D+00
      9 -0.645142D-04  0.309519D-04  0.273288D-04  0.531686D-04  0.000000D+00
     10  0.264355D-03 -0.131277D-03 -0.128788D-03 -0.730093D-05  0.000000D+00
     11  0.264356D-03 -0.131279D-03 -0.128786D-03 -0.730090D-05  0.000000D+00
     12  0.202777D-03  0.160056D-02  0.164426D-02 -0.689779D-03  0.000000D+00
     13  0.000000D+00  0.526755D-04 -0.470366D-04 -0.366123D-04  0.000000D+00
     14  0.000000D+00  0.114004D-05  0.000000D+00  0.000000D+00  0.000000D+00
     15  0.000000D+00 -0.226198D-03  0.222397D-03  0.642648D-05  0.000000D+00
                6             7             8             9            10 
      6  0.145890D+00
      7  0.341703D-04  0.195979D+00
      8  0.320916D-04  0.974860D-01  0.195973D+00
      9 -0.351353D-04 -0.262168D-03 -0.271472D-03  0.478712D-02
     10  0.000000D+00  0.108508D-03  0.104864D-03  0.806073D-03  0.361190D-02
     11  0.000000D+00  0.108508D-03  0.104865D-03  0.806077D-03  0.361191D-02
     12  0.552704D-03 -0.824796D-02 -0.791783D-02  0.138078D-02  0.232182D-03
     13  0.261328D-04  0.324578D-03 -0.333188D-03  0.208897D-04 -0.314830D-05
     14  0.000000D+00  0.000000D+00  0.000000D+00 -0.230420D-05 -0.505078D-05
     15  0.000000D+00 -0.389266D-04  0.320908D-04 -0.299333D-05  0.000000D+00
               11            12            13            14            15 
     11  0.361191D-02
     12  0.232179D-03  0.102747D-01
     13 -0.314042D-05 -0.234914D-02  0.472184D-02
     14 -0.505086D-05  0.000000D+00 -0.273944D-05  0.000000D+00
     15  0.000000D+00 -0.410152D-03  0.814665D-03 -0.666620D-05  0.361057D-02
 Leave Link  716 at Thu Sep  5 23:07:18 2019, MaxMem=  2684354560 cpu:         0.2
 (Enter /soft/gaussian/09-e.01/g09/l103.exe)

 GradGradGradGradGradGradGradGradGradGradGradGradGradGradGradGradGradGrad
 Berny optimization.
 Search for a local minimum.
 Step number   1 out of a maximum of   25
 All quantities printed in internal units (Hartrees-Bohrs-Radians)
 Second derivative matrix not updated -- analytic derivatives used.
 The second derivative matrix:
                          R1        R2        A2        R3        A3
           R1           0.37565
           R2           0.00057   0.37566
           A2           0.01615   0.00009   0.19598
           R3           0.00057   0.00057  -0.01605   0.37566
           A3           0.01615  -0.01605   0.09749   0.00009   0.19597
           D3           0.00020   0.00160  -0.00825   0.00164  -0.00792
           R4          -0.00000   0.00000  -0.00005   0.00000  -0.00004
           A4          -0.00006   0.00003  -0.00026   0.00003  -0.00027
           D4          -0.00000   0.00005   0.00032  -0.00005  -0.00033
           A6           0.00026  -0.00013   0.00011  -0.00013   0.00010
           D6           0.00000  -0.00023  -0.00004   0.00022   0.00003
           A5           0.00026  -0.00013   0.00011  -0.00013   0.00010
           D5          -0.00000   0.00000  -0.00000  -0.00000  -0.00000
           R5          -0.00000   0.00000  -0.00000   0.00000  -0.00000
           R6           0.00003   0.00003   0.00003   0.00003   0.00003
                          D3        R4        A4        D4        A6
           D3           0.01027
           R4          -0.00069   0.00122
           A4           0.00138   0.00005   0.00479
           D4          -0.00235  -0.00004   0.00002   0.00472
           A6           0.00023  -0.00001   0.00081  -0.00000   0.00361
           D6          -0.00041   0.00001  -0.00000   0.00081   0.00000
           A5           0.00023  -0.00001   0.00081  -0.00000   0.00361
           D5           0.00000  -0.00000  -0.00000  -0.00000  -0.00001
           R5          -0.00000  -0.00000  -0.00000  -0.00000   0.00000
           R6           0.00055   0.00393  -0.00004   0.00003  -0.00000
                          D6        A5        D5        R5        R6
           D6           0.00361
           A5           0.00000   0.00361
           D5          -0.00001  -0.00001   0.00000
           R5           0.00000   0.00000   0.00000  -0.00000
           R6          -0.00000  -0.00000   0.00000   0.00000   0.14589
 ITU=  0
     Eigenvalues ---    0.00113   0.00300   0.00320   0.00412   0.00520
     Eigenvalues ---    0.01109   0.09755   0.28527   0.37603   0.37680
     Eigenvalues ---    0.383741000.000001000.000001000.000001000.00000
 RFO step:  Lambda=-5.49210001D-07 EMin= 1.13477735D-03
 Linear search not attempted -- first point.
 Variable       Old X    -DE/DX   Delta X   Delta X   Delta X     New X
                                 (Linear)    (Quad)   (Total)
    R1        2.04620   0.00002   0.00000   0.00006   0.00006   2.04626
    R2        2.04620   0.00002   0.00000   0.00006   0.00006   2.04626
    A2        2.09291   0.00001   0.00000   0.00009   0.00009   2.09300
    R3        2.04620   0.00003   0.00000   0.00006   0.00006   2.04626
    A3        2.09294   0.00001   0.00000   0.00006   0.00006   2.09300
    D3        3.04157   0.00004   0.00000   0.00163   0.00163   3.04320
    R4        4.85130  -0.00000   0.00000  -0.00310  -0.00310   4.84820
    A4        1.59147   0.00004   0.00000   0.00783   0.00783   1.59930
    D4        4.66855  -0.00003   0.00000  -0.00541  -0.00541   4.66313
    A6        1.57417  -0.00001   0.00000  -0.00340  -0.00340   1.57077
    D6        3.13872   0.00001   0.00000   0.00289   0.00289   3.14161
    A5        1.57080  -0.00001   0.00000   0.00000   0.00000   1.57080
    D5        3.14159  -0.00000   0.00000   0.00000   0.00000   3.14159
    R5        1.88973  -0.00000   0.00000   0.00000   0.00000   1.88973
    R6        1.66844  -0.06244   0.00000   0.00000   0.00000   1.66844
         Item               Value     Threshold  Converged?
 Maximum Force            0.000039     0.000450     YES
 RMS     Force            0.000022     0.000300     YES
 Maximum Displacement     0.007832     0.001800     NO 
 RMS     Displacement     0.002862     0.001200     NO 
 Predicted change in Energy=-2.746050D-07
 Lowest energy point so far.  Saving SCF results.
 GradGradGradGradGradGradGradGradGradGradGradGradGradGradGradGradGradGrad

 Leave Link  103 at Thu Sep  5 23:07:18 2019, MaxMem=  2684354560 cpu:         0.1
 (Enter /soft/gaussian/09-e.01/g09/l202.exe)
 ---------------------------------------------------------------------------------------------------
                            Z-MATRIX (ANGSTROMS AND DEGREES)
   CD    Cent   Atom    N1       Length/X        N2       Alpha/Y        N3        Beta/Z          J
 ---------------------------------------------------------------------------------------------------
      1      1  C 
      2      2  H        1   1.082832(     1)
      3      3  H        1   1.082832(     2)      2  119.920(     7)
      4      4  H        1   1.082832(     3)      2  119.920(     8)      3  174.362(    12)      0
      5      5  H        1   2.565559(     4)      2   91.633(     9)      3  267.178(    13)      0
      6         X        5   1.000000(     5)      1   90.000(    10)      2  180.000(    14)      0
      7      6  H        5   0.882900(     6)      6   89.999(    11)      1  180.001(    15)      0
 ---------------------------------------------------------------------------------------------------
                         Z-Matrix orientation:                         
 ---------------------------------------------------------------------
 Center     Atomic      Atomic             Coordinates (Angstroms)
 Number     Number       Type             X           Y           Z
 ---------------------------------------------------------------------
      1          6           0        0.000000    0.000000    0.000000
      2          1           0        0.000000    0.000000    1.082832
      3          1           0        0.938517    0.000000   -0.540103
      4          1           0       -0.933976   -0.092196   -0.540104
      5          1           0       -0.126262    2.561407   -0.073127
      6         -1           0       -0.124858    2.532938   -1.072721
      7          1           0       -0.169732    3.442876   -0.098312
 ---------------------------------------------------------------------
                    Distance matrix (angstroms):
                    1          2          3          4          5
     1  C    0.000000
     2  H    1.082832   0.000000
     3  H    1.082832   1.874761   0.000000
     4  H    1.082832   1.874762   1.874761   0.000000
     5  H    2.565559   2.813003   2.812938   2.812842   0.000000
     6  X    2.753560   3.328328   2.798253   2.798157   1.000000
     7  H    3.448459   3.643803   3.643733   3.643623   0.882900
                    6          7
     6  X    0.000000
     7  H    1.333969   0.000000
 Stoichiometry    CH5(2)
 Framework group  C1[X(CH5)]
 Deg. of freedom    12
 Full point group                 C1      NOp   1
 RotChk:  IX=2 Diff= 1.90D+00
 Largest Abelian subgroup         C1      NOp   1
 Largest concise Abelian subgroup C1      NOp   1
                         Standard orientation:                         
 ---------------------------------------------------------------------
 Center     Atomic      Atomic             Coordinates (Angstroms)
 Number     Number       Type             X           Y           Z
 ---------------------------------------------------------------------
      1          6           0        0.538334   -0.000006    0.000001
      2          1           0        0.569213    0.941327    0.534289
      3          1           0        0.569131   -0.007971   -1.082363
      4          1           0        0.569003   -0.933385    0.548078
      5          1           0       -2.027225    0.000039   -0.000007
      6          1           0       -2.910125    0.000028   -0.000002
 ---------------------------------------------------------------------
 Rotational constants (GHZ):    142.6724177     27.6130390     27.6130359
 Leave Link  202 at Thu Sep  5 23:07:18 2019, MaxMem=  2684354560 cpu:         0.1
 (Enter /soft/gaussian/09-e.01/g09/l301.exe)
 Standard basis: 6-31G(d) (6D, 7F)
 Ernie: Thresh=  0.10000D-02 Tol=  0.10000D-05 Strict=F.
 There are    25 symmetry adapted cartesian basis functions of A   symmetry.
 There are    25 symmetry adapted basis functions of A   symmetry.
    25 basis functions,    48 primitive gaussians,    25 cartesian basis functions
     6 alpha electrons        5 beta electrons
       nuclear repulsion energy        13.4010612253 Hartrees.
 IExCor=  402 DFT=T Ex+Corr=B3LYP ExCW=0 ScaHFX=  0.200000
 ScaDFX=  0.800000  0.720000  1.000000  0.810000 ScalE2=  1.000000  1.000000
 IRadAn=      5 IRanWt=     -1 IRanGd=            0 ICorTp=0 IEmpDi=  4
 NAtoms=    6 NActive=    6 NUniq=    6 SFac= 1.00D+00 NAtFMM=   60 NAOKFM=F Big=F
 Integral buffers will be    131072 words long.
 Raffenetti 2 integral format.
 Two-electron integral symmetry is turned on.
 Leave Link  301 at Thu Sep  5 23:07:18 2019, MaxMem=  2684354560 cpu:         0.4
 (Enter /soft/gaussian/09-e.01/g09/l302.exe)
 NPDir=0 NMtPBC=     1 NCelOv=     1 NCel=       1 NClECP=     1 NCelD=      1
         NCelK=      1 NCelE2=     1 NClLst=     1 CellRange=     0.0.
 One-electron integrals computed using PRISM.
 NBasis=    25 RedAO= T EigKep=  2.62D-02  NBF=    25
 NBsUse=    25 1.00D-06 EigRej= -1.00D+00 NBFU=    25
 Precomputing XC quadrature grid using
 IXCGrd= 4 IRadAn=           5 IRanWt=          -1 IRanGd=           0 AccXCQ= 0.00D+00.
 Generated NRdTot=       0 NPtTot=           0 NUsed=           0 NTot=          32
 NSgBfM=    25    25    25    25    25 MxSgAt=     6 MxSgA2=     6.
 Leave Link  302 at Thu Sep  5 23:07:18 2019, MaxMem=  2684354560 cpu:         1.6
 (Enter /soft/gaussian/09-e.01/g09/l303.exe)
 DipDrv:  MaxL=1.
 Leave Link  303 at Thu Sep  5 23:07:18 2019, MaxMem=  2684354560 cpu:         0.2
 (Enter /soft/gaussian/09-e.01/g09/l401.exe)
 Initial guess from the checkpoint file:  "/blues/gpfs/home/elliott/Packages/PACC/moldriver/rcdriver/tmprundir/RXN/CH3.H2/MDUSDFXREFXETQ/0_0/2_1/UHFFFAOYSA-N/CH4.H/HXBDELFRWIQQII/0_0/1_2/UHFFFAOYSA-N/2/ezvlpJU/SCANS/R6/01/RUN/OPTI/A04/Gau-158144.chk"
 B after Tr=    -0.000000    0.000000   -0.000000
         Rot=    0.742101    0.670286   -0.000732    0.001063 Ang=  84.18 deg.
 Guess basis will be translated and rotated to current coordinates.
 JPrj=2 DoOrth=T DoCkMO=T.
 Initial guess <Sx>= 0.0000 <Sy>= 0.0000 <Sz>= 0.5000 <S**2>= 0.7538 S= 0.5019
 Leave Link  401 at Thu Sep  5 23:07:19 2019, MaxMem=  2684354560 cpu:         0.6
 (Enter /soft/gaussian/09-e.01/g09/l502.exe)
 UHF open shell SCF:
 Using DIIS extrapolation, IDIIS=  1040.
 Integral symmetry usage will be decided dynamically.
 Keep R1 and R2 ints in memory in canonical form, NReq=976418.
 IVT=        8268 IEndB=        8268 NGot=  2684354560 MDV=  2684240343
 LenX=  2684240343 LenY=  2684239277
 Requested convergence on RMS density matrix=1.00D-08 within  64 cycles.
 Requested convergence on MAX density matrix=1.00D-06.
 Requested convergence on             energy=1.00D-06.
 No special actions if energy rises.
 FoFCou: FMM=F IPFlag=           0 FMFlag=           0 FMFlg1=           0
         NFxFlg=           0 DoJE=F BraDBF=F KetDBF=F FulRan=T
         wScrn=  0.000000 ICntrl=     600 IOpCl=  0 I1Cent=           0 NGrid=           0
         NMat0=    1 NMatS0=    325 NMatT0=    0 NMatD0=    1 NMtDS0=    0 NMtDT0=    0
 Symmetry not used in FoFCou.

 Cycle   1  Pass 1  IDiag  1:
 E= -41.0049408919302    
 DIIS: error= 8.85D-04 at cycle   1 NSaved=   1.
 NSaved= 1 IEnMin= 1 EnMin= -41.0049408919302     IErMin= 1 ErrMin= 8.85D-04
 ErrMax= 8.85D-04  0.00D+00 EMaxC= 1.00D-01 BMatC= 2.29D-05 BMatP= 2.29D-05
 IDIUse=3 WtCom= 9.91D-01 WtEn= 8.85D-03
 Coeff-Com:  0.100D+01
 Coeff-En:   0.100D+01
 Coeff:      0.100D+01
 Gap=     2.675 Goal=   None    Shift=    0.000
 Gap=     2.533 Goal=   None    Shift=    0.000
 RMSDP=1.63D-04 MaxDP=1.59D-03              OVMax= 3.43D-03

 Cycle   2  Pass 1  IDiag  1:
 E= -41.0049570592632     Delta-E=       -0.000016167333 Rises=F Damp=F
 DIIS: error= 2.06D-04 at cycle   2 NSaved=   2.
 NSaved= 2 IEnMin= 2 EnMin= -41.0049570592632     IErMin= 2 ErrMin= 2.06D-04
 ErrMax= 2.06D-04  0.00D+00 EMaxC= 1.00D-01 BMatC= 9.08D-07 BMatP= 2.29D-05
 IDIUse=3 WtCom= 9.98D-01 WtEn= 2.06D-03
 Coeff-Com: -0.138D+00 0.114D+01
 Coeff-En:   0.000D+00 0.100D+01
 Coeff:     -0.138D+00 0.114D+01
 Gap=     0.310 Goal=   None    Shift=    0.000
 Gap=     0.336 Goal=   None    Shift=    0.000
 RMSDP=5.32D-05 MaxDP=4.84D-04 DE=-1.62D-05 OVMax= 1.13D-03

 Cycle   3  Pass 1  IDiag  1:
 E= -41.0049580952829     Delta-E=       -0.000001036020 Rises=F Damp=F
 DIIS: error= 4.67D-05 at cycle   3 NSaved=   3.
 NSaved= 3 IEnMin= 3 EnMin= -41.0049580952829     IErMin= 3 ErrMin= 4.67D-05
 ErrMax= 4.67D-05  0.00D+00 EMaxC= 1.00D-01 BMatC= 5.30D-08 BMatP= 9.08D-07
 IDIUse=1 WtCom= 1.00D+00 WtEn= 0.00D+00
 Coeff-Com:  0.225D-01-0.344D+00 0.132D+01
 Coeff:      0.225D-01-0.344D+00 0.132D+01
 Gap=     0.310 Goal=   None    Shift=    0.000
 Gap=     0.336 Goal=   None    Shift=    0.000
 RMSDP=1.47D-05 MaxDP=1.25D-04 DE=-1.04D-06 OVMax= 3.34D-04

 Cycle   4  Pass 1  IDiag  1:
 E= -41.0049581519783     Delta-E=       -0.000000056695 Rises=F Damp=F
 DIIS: error= 8.52D-06 at cycle   4 NSaved=   4.
 NSaved= 4 IEnMin= 4 EnMin= -41.0049581519783     IErMin= 4 ErrMin= 8.52D-06
 ErrMax= 8.52D-06  0.00D+00 EMaxC= 1.00D-01 BMatC= 5.64D-09 BMatP= 5.30D-08
 IDIUse=1 WtCom= 1.00D+00 WtEn= 0.00D+00
 Coeff-Com:  0.118D-01-0.153D+00 0.483D+00 0.658D+00
 Coeff:      0.118D-01-0.153D+00 0.483D+00 0.658D+00
 Gap=     0.310 Goal=   None    Shift=    0.000
 Gap=     0.336 Goal=   None    Shift=    0.000
 RMSDP=1.82D-06 MaxDP=1.85D-05 DE=-5.67D-08 OVMax= 2.18D-05

 Cycle   5  Pass 1  IDiag  1:
 E= -41.0049581535063     Delta-E=       -0.000000001528 Rises=F Damp=F
 DIIS: error= 2.51D-06 at cycle   5 NSaved=   5.
 NSaved= 5 IEnMin= 5 EnMin= -41.0049581535063     IErMin= 5 ErrMin= 2.51D-06
 ErrMax= 2.51D-06  0.00D+00 EMaxC= 1.00D-01 BMatC= 4.13D-10 BMatP= 5.64D-09
 IDIUse=1 WtCom= 1.00D+00 WtEn= 0.00D+00
 Coeff-Com:  0.236D-02-0.260D-01 0.629D-01 0.232D+00 0.729D+00
 Coeff:      0.236D-02-0.260D-01 0.629D-01 0.232D+00 0.729D+00
 Gap=     0.310 Goal=   None    Shift=    0.000
 Gap=     0.336 Goal=   None    Shift=    0.000
 RMSDP=4.37D-07 MaxDP=4.63D-06 DE=-1.53D-09 OVMax= 5.10D-06

 Cycle   6  Pass 1  IDiag  1:
 E= -41.0049581536187     Delta-E=       -0.000000000112 Rises=F Damp=F
 DIIS: error= 3.68D-07 at cycle   6 NSaved=   6.
 NSaved= 6 IEnMin= 6 EnMin= -41.0049581536187     IErMin= 6 ErrMin= 3.68D-07
 ErrMax= 3.68D-07  0.00D+00 EMaxC= 1.00D-01 BMatC= 1.32D-11 BMatP= 4.13D-10
 IDIUse=1 WtCom= 1.00D+00 WtEn= 0.00D+00
 Coeff-Com: -0.466D-03 0.692D-02-0.254D-01-0.373D-02 0.156D+00 0.866D+00
 Coeff:     -0.466D-03 0.692D-02-0.254D-01-0.373D-02 0.156D+00 0.866D+00
 Gap=     0.310 Goal=   None    Shift=    0.000
 Gap=     0.336 Goal=   None    Shift=    0.000
 RMSDP=9.75D-08 MaxDP=9.28D-07 DE=-1.12D-10 OVMax= 1.16D-06

 Cycle   7  Pass 1  IDiag  1:
 E= -41.0049581536229     Delta-E=       -0.000000000004 Rises=F Damp=F
 DIIS: error= 1.40D-07 at cycle   7 NSaved=   7.
 NSaved= 7 IEnMin= 7 EnMin= -41.0049581536229     IErMin= 7 ErrMin= 1.40D-07
 ErrMax= 1.40D-07  0.00D+00 EMaxC= 1.00D-01 BMatC= 2.16D-13 BMatP= 1.32D-11
 IDIUse=1 WtCom= 1.00D+00 WtEn= 0.00D+00
 Coeff-Com: -0.993D-04 0.134D-02-0.435D-02-0.363D-02 0.126D-01 0.131D+00
 Coeff-Com:  0.863D+00
 Coeff:     -0.993D-04 0.134D-02-0.435D-02-0.363D-02 0.126D-01 0.131D+00
 Coeff:      0.863D+00
 Gap=     0.310 Goal=   None    Shift=    0.000
 Gap=     0.336 Goal=   None    Shift=    0.000
 RMSDP=1.61D-08 MaxDP=2.36D-07 DE=-4.19D-12 OVMax= 4.13D-07

 Cycle   8  Pass 1  IDiag  1:
 E= -41.0049581536230     Delta-E=       -0.000000000000 Rises=F Damp=F
 DIIS: error= 5.66D-08 at cycle   8 NSaved=   8.
 NSaved= 8 IEnMin= 8 EnMin= -41.0049581536230     IErMin= 8 ErrMin= 5.66D-08
 ErrMax= 5.66D-08  0.00D+00 EMaxC= 1.00D-01 BMatC= 3.66D-14 BMatP= 2.16D-13
 IDIUse=1 WtCom= 1.00D+00 WtEn= 0.00D+00
 Coeff-Com:  0.619D-04-0.916D-03 0.336D-02 0.683D-03-0.194D-01-0.115D+00
 Coeff-Com: -0.618D-01 0.119D+01
 Coeff:      0.619D-04-0.916D-03 0.336D-02 0.683D-03-0.194D-01-0.115D+00
 Coeff:     -0.618D-01 0.119D+01
 Gap=     0.310 Goal=   None    Shift=    0.000
 Gap=     0.336 Goal=   None    Shift=    0.000
 RMSDP=9.94D-09 MaxDP=1.24D-07 DE=-1.49D-13 OVMax= 2.43D-07

 SCF Done:  E(UB3LYP) =  -41.0049581536     A.U. after    8 cycles
            NFock=  8  Conv=0.99D-08     -V/T= 2.0131
 <Sx>= 0.0000 <Sy>= 0.0000 <Sz>= 0.5000 <S**2>= 0.7538 S= 0.5019
 <L.S>= 0.000000000000E+00
 KE= 4.047390160911D+01 PE=-1.207022470286D+02 EE= 2.582232604058D+01
 Annihilation of the first spin contaminant:
 S**2 before annihilation     0.7538,   after     0.7500
 Leave Link  502 at Thu Sep  5 23:07:19 2019, MaxMem=  2684354560 cpu:         6.3
 (Enter /soft/gaussian/09-e.01/g09/l508.exe)
 QCSCF skips out because SCF is already converged.
 Leave Link  508 at Thu Sep  5 23:07:19 2019, MaxMem=  2684354560 cpu:         0.0
 (Enter /soft/gaussian/09-e.01/g09/l701.exe)
 Compute integral first derivatives.
 ... and contract with generalized density number  0.
 Leave Link  701 at Thu Sep  5 23:07:19 2019, MaxMem=  2684354560 cpu:         1.6
 (Enter /soft/gaussian/09-e.01/g09/l702.exe)
 L702 exits ... SP integral derivatives will be done elsewhere.
 Leave Link  702 at Thu Sep  5 23:07:19 2019, MaxMem=  2684354560 cpu:         0.1
 (Enter /soft/gaussian/09-e.01/g09/l703.exe)
 Compute integral first derivatives, UseDBF=F ICtDFT=           0.
 Integral derivatives from FoFJK, PRISM(SPDF).
 Calling FoFJK, ICntrl=      2127 FMM=F ISym2X=0 I1Cent= 0 IOpClX= 1 NMat=1 NMatS=1 NMatT=0.
 FoFJK:  IHMeth= 1 ICntrl=    2127 DoSepK=F KAlg= 0 I1Cent=   0 FoldK=F
 IRaf=         0 NMat=   1 IRICut=       1 DoRegI=T DoRafI=F ISym2E= 0.
 FoFCou: FMM=F IPFlag=           0 FMFlag=      100000 FMFlg1=         800
         NFxFlg=           0 DoJE=F BraDBF=F KetDBF=F FulRan=T
         wScrn=  0.000000 ICntrl=    2127 IOpCl=  1 I1Cent=           0 NGrid=           0
         NMat0=    1 NMatS0=      1 NMatT0=    0 NMatD0=    1 NMtDS0=    0 NMtDT0=    0
 Symmetry not used in FoFCou.
 Leave Link  703 at Thu Sep  5 23:07:20 2019, MaxMem=  2684354560 cpu:         2.2
 (Enter /soft/gaussian/09-e.01/g09/l716.exe)
 Dipole        = 1.48835706D-01-4.94799082D-06 5.77977354D-07
 ***** Axes restored to original set *****
 -------------------------------------------------------------------
 Center     Atomic                   Forces (Hartrees/Bohr)
 Number     Number              X              Y              Z
 -------------------------------------------------------------------
      1        6           0.000000214   -0.000001577   -0.000000216
      2        1          -0.000000181    0.000000617    0.000000188
      3        1           0.000000047    0.000000193   -0.000000071
      4        1          -0.000000103    0.000000400    0.000000045
      5        1          -0.003073642    0.062325598   -0.001780649
      6        1           0.003073665   -0.062325231    0.001780704
 -------------------------------------------------------------------
 Cartesian Forces:  Max     0.062325598 RMS     0.020808853
 -----------------------------------------------------------------------------------------------
                       Internal Coordinate Forces (Hartree/Bohr or radian)
  Cent   Atom   N1       Length/X         N2         Alpha/Y        N3         Beta/Z          J
 -----------------------------------------------------------------------------------------------
      1  C 
      2  H        1   0.000000(     1)
      3  H        1   0.000000(     2)      2   0.000000(     7)
      4  H        1   0.000000(     3)      2  -0.000000(     8)      3   0.000001(    12)     0
      5  H        1   0.000000(     4)      2  -0.000000(     9)      3   0.000000(    13)     0
         X        5   0.000000(     5)      1   0.000000(    10)      2  -0.000000(    14)     0
      6  H        5  -0.062426(     6)      6   0.000000(    11)      1  -0.000000(    15)     0
 -----------------------------------------------------------------------------------------------
 Internal  Forces:  Max     0.062426379 RMS     0.016118422
 Leave Link  716 at Thu Sep  5 23:07:20 2019, MaxMem=  2684354560 cpu:         0.2
 (Enter /soft/gaussian/09-e.01/g09/l103.exe)

 GradGradGradGradGradGradGradGradGradGradGradGradGradGradGradGradGradGrad
 Berny optimization.
 Search for a local minimum.
 Step number   2 out of a maximum of   25
 All quantities printed in internal units (Hartrees-Bohrs-Radians)
 Update second derivatives using D2CorN and points    2
 DE= -3.13D-07 DEPred=-2.75D-07 R= 1.14D+00
 Trust test= 1.14D+00 RLast= 1.11D-02 DXMaxT set to 3.00D-01
 The second derivative matrix:
                          R1        R2        A2        R3        A3
           R1           0.37565
           R2           0.00057   0.37566
           A2           0.01615   0.00009   0.19598
           R3           0.00057   0.00057  -0.01605   0.37566
           A3           0.01615  -0.01605   0.09749   0.00009   0.19597
           D3           0.00020   0.00160  -0.00825   0.00164  -0.00792
           R4          -0.00000   0.00000  -0.00005   0.00000  -0.00004
           A4          -0.00006   0.00003  -0.00026   0.00003  -0.00027
           D4          -0.00000   0.00005   0.00032  -0.00005  -0.00033
           A6           0.00026  -0.00013   0.00011  -0.00013   0.00010
           D6           0.00000  -0.00023  -0.00004   0.00022   0.00003
           A5           0.00026  -0.00013   0.00011  -0.00013   0.00010
           D5          -0.00000   0.00000  -0.00000  -0.00000  -0.00000
           R5          -0.00000   0.00000  -0.00000   0.00000  -0.00000
           R6           0.00003   0.00003   0.00003   0.00003   0.00003
                          D3        R4        A4        D4        A6
           D3           0.01027
           R4          -0.00069   0.00122
           A4           0.00138   0.00005   0.00479
           D4          -0.00235  -0.00004   0.00002   0.00472
           A6           0.00023  -0.00001   0.00081  -0.00000   0.00361
           D6          -0.00041   0.00001  -0.00000   0.00081   0.00000
           A5           0.00023  -0.00001   0.00081  -0.00000   0.00361
           D5           0.00000  -0.00000  -0.00000  -0.00000  -0.00001
           R5          -0.00000  -0.00000  -0.00000  -0.00000   0.00000
           R6           0.00055   0.00393  -0.00004   0.00003  -0.00000
                          D6        A5        D5        R5        R6
           D6           0.00361
           A5           0.00000   0.00361
           D5          -0.00001  -0.00001   0.00000
           R5           0.00000   0.00000   0.00000  -0.00000
           R6          -0.00000  -0.00000   0.00000   0.00000   0.14589
 ITU=  0  0
     Eigenvalues ---    0.00113   0.00300   0.00320   0.00412   0.00520
     Eigenvalues ---    0.01109   0.09755   0.28527   0.37603   0.37680
     Eigenvalues ---    0.383741000.000001000.000001000.000001000.00000
 RFO step:  Lambda= 0.00000000D+00 EMin= 1.13477735D-03
 Quartic linear search produced a step of -0.00490.
 Variable       Old X    -DE/DX   Delta X   Delta X   Delta X     New X
                                 (Linear)    (Quad)   (Total)
    R1        2.04626   0.00000  -0.00000   0.00000   0.00000   2.04626
    R2        2.04626   0.00000  -0.00000  -0.00000  -0.00000   2.04626
    A2        2.09300   0.00000  -0.00000   0.00001   0.00000   2.09300
    R3        2.04626   0.00000  -0.00000  -0.00000  -0.00000   2.04625
    A3        2.09300  -0.00000  -0.00000   0.00000   0.00000   2.09300
    D3        3.04320   0.00000  -0.00001   0.00015   0.00014   3.04334
    R4        4.84820   0.00000   0.00002   0.00034   0.00036   4.84856
    A4        1.59930  -0.00000  -0.00004  -0.00006  -0.00010   1.59921
    D4        4.66313   0.00000   0.00003   0.00009   0.00012   4.66325
    A6        1.57077   0.00000   0.00002  -0.00001   0.00001   1.57078
    D6        3.14161  -0.00000  -0.00001  -0.00000  -0.00002   3.14160
    A5        1.57080   0.00000   0.00000   0.00000   0.00000   1.57080
    D5        3.14159  -0.00000   0.00000   0.00000   0.00000   3.14159
    R5        1.88973   0.00000   0.00000   0.00000   0.00000   1.88973
    R6        1.66844  -0.06243   0.00000   0.00000   0.00000   1.66844
         Item               Value     Threshold  Converged?
 Maximum Force            0.000001     0.000450     YES
 RMS     Force            0.000000     0.000300     YES
 Maximum Displacement     0.000358     0.001800     YES
 RMS     Displacement     0.000107     0.001200     YES
 Predicted change in Energy=-1.587173D-10
 Optimization completed.
    -- Stationary point found.
                       ----------------------------
                       !   Optimized Parameters   !
                       ! (Angstroms and Degrees)  !
 ----------------------                            ----------------------
 !      Name          Value   Derivative information (Atomic Units)     !
 ------------------------------------------------------------------------
 !       R1          1.0828   -DE/DX =    0.0                           !
 !       R2          1.0828   -DE/DX =    0.0                           !
 !       A2        119.9198   -DE/DX =    0.0                           !
 !       R3          1.0828   -DE/DX =    0.0                           !
 !       A3        119.9199   -DE/DX =    0.0                           !
 !       D3        174.3624   -DE/DX =    0.0                           !
 !       R4          2.5656   -DE/DX =    0.0                           !
 !       A4         91.6333   -DE/DX =    0.0                           !
 !       D4        267.178    -DE/DX =    0.0                           !
 !       A6         89.9988   -DE/DX =    0.0                           !
 !       D6        180.0013   -DE/DX =    0.0                           !
 !       A5         90.0      -DE/DX =    0.0                           !
 !       D5        180.0      -DE/DX =    0.0                           !
 !       R5          1.0      -DE/DX =    0.0                           !
 !       R6          0.8829   -DE/DX =   -0.0624                        !
 ------------------------------------------------------------------------
 Lowest energy point so far.  Saving SCF results.
 GradGradGradGradGradGradGradGradGradGradGradGradGradGradGradGradGradGrad

 Largest change from initial coordinates is atom    3       0.003 Angstoms.
 Leave Link  103 at Thu Sep  5 23:07:20 2019, MaxMem=  2684354560 cpu:         0.2
 (Enter /soft/gaussian/09-e.01/g09/l202.exe)
 ---------------------------------------------------------------------------------------------------
                            Z-MATRIX (ANGSTROMS AND DEGREES)
   CD    Cent   Atom    N1       Length/X        N2       Alpha/Y        N3        Beta/Z          J
 ---------------------------------------------------------------------------------------------------
      1      1  C 
      2      2  H        1   1.082832(     1)
      3      3  H        1   1.082832(     2)      2  119.920(     7)
      4      4  H        1   1.082832(     3)      2  119.920(     8)      3  174.362(    12)      0
      5      5  H        1   2.565559(     4)      2   91.633(     9)      3  267.178(    13)      0
      6         X        5   1.000000(     5)      1   90.000(    10)      2  180.000(    14)      0
      7      6  H        5   0.882900(     6)      6   89.999(    11)      1  180.001(    15)      0
 ---------------------------------------------------------------------------------------------------
                         Z-Matrix orientation:                         
 ---------------------------------------------------------------------
 Center     Atomic      Atomic             Coordinates (Angstroms)
 Number     Number       Type             X           Y           Z
 ---------------------------------------------------------------------
      1          6           0        0.000000    0.000000    0.000000
      2          1           0        0.000000    0.000000    1.082832
      3          1           0        0.938517    0.000000   -0.540103
      4          1           0       -0.933976   -0.092196   -0.540104
      5          1           0       -0.126262    2.561407   -0.073127
      6         -1           0       -0.124858    2.532938   -1.072721
      7          1           0       -0.169732    3.442876   -0.098312
 ---------------------------------------------------------------------
                    Distance matrix (angstroms):
                    1          2          3          4          5
     1  C    0.000000
     2  H    1.082832   0.000000
     3  H    1.082832   1.874761   0.000000
     4  H    1.082832   1.874762   1.874761   0.000000
     5  H    2.565559   2.813003   2.812938   2.812842   0.000000
     6  X    2.753560   3.328328   2.798253   2.798157   1.000000
     7  H    3.448459   3.643803   3.643733   3.643623   0.882900
                    6          7
     6  X    0.000000
     7  H    1.333969   0.000000
 Stoichiometry    CH5(2)
 Framework group  C1[X(CH5)]
 Deg. of freedom    12
 Full point group                 C1      NOp   1
 RotChk:  IX=2 Diff= 3.69D-16
 Largest Abelian subgroup         C1      NOp   1
 Largest concise Abelian subgroup C1      NOp   1
                         Standard orientation:                         
 ---------------------------------------------------------------------
 Center     Atomic      Atomic             Coordinates (Angstroms)
 Number     Number       Type             X           Y           Z
 ---------------------------------------------------------------------
      1          6           0        0.538334   -0.000006    0.000001
      2          1           0        0.569213    0.941327    0.534289
      3          1           0        0.569131   -0.007971   -1.082363
      4          1           0        0.569003   -0.933385    0.548078
      5          1           0       -2.027225    0.000039   -0.000007
      6          1           0       -2.910125    0.000028   -0.000002
 ---------------------------------------------------------------------
 Rotational constants (GHZ):    142.6724177     27.6130390     27.6130359
 Leave Link  202 at Thu Sep  5 23:07:20 2019, MaxMem=  2684354560 cpu:         0.1
 (Enter /soft/gaussian/09-e.01/g09/l601.exe)
 Copying SCF densities to generalized density rwf, IOpCl= 1 IROHF=0.

 **********************************************************************

            Population analysis using the SCF density.

 **********************************************************************

 Orbital symmetries:
 Alpha Orbitals:
       Occupied  (A) (A) (A) (A) (A) (A)
       Virtual   (A) (A) (A) (A) (A) (A) (A) (A) (A) (A) (A) (A)
                 (A) (A) (A) (A) (A) (A) (A)
 Beta  Orbitals:
       Occupied  (A) (A) (A) (A) (A)
       Virtual   (A) (A) (A) (A) (A) (A) (A) (A) (A) (A) (A) (A)
                 (A) (A) (A) (A) (A) (A) (A) (A)
 The electronic state is 2-A.
 Alpha  occ. eigenvalues --  -10.19787  -0.68693  -0.42147  -0.42147  -0.40087
 Alpha  occ. eigenvalues --   -0.22875
 Alpha virt. eigenvalues --    0.08080   0.11326   0.17836   0.17836   0.53985
 Alpha virt. eigenvalues --    0.53985   0.55140   0.62359   0.78578   0.90950
 Alpha virt. eigenvalues --    0.90950   0.96137   1.12174   1.64431   1.64431
 Alpha virt. eigenvalues --    2.00514   2.18168   2.18168   4.09125
  Beta  occ. eigenvalues --  -10.18399  -0.64705  -0.41202  -0.41202  -0.39740
  Beta virt. eigenvalues --   -0.06169   0.09307   0.12950   0.18385   0.18385
  Beta virt. eigenvalues --    0.54801   0.54801   0.60565   0.64940   0.80432
  Beta virt. eigenvalues --    0.91436   0.91436   0.98682   1.12772   1.71415
  Beta virt. eigenvalues --    1.71415   2.08989   2.19289   2.19289   4.12799
          Condensed to atoms (all electrons):
               1          2          3          4          5          6
     1  C    5.337462   0.380003   0.380003   0.380003   0.015204  -0.006066
     2  H    0.380003   0.510281  -0.029394  -0.029394   0.000027   0.000038
     3  H    0.380003  -0.029394   0.510281  -0.029394   0.000027   0.000038
     4  H    0.380003  -0.029394  -0.029394   0.510280   0.000027   0.000038
     5  H    0.015204   0.000027   0.000027   0.000027   0.612635   0.367461
     6  H   -0.006066   0.000038   0.000038   0.000038   0.367461   0.661818
          Atomic-Atomic Spin Densities.
               1          2          3          4          5          6
     1  C    1.144673  -0.009031  -0.009031  -0.009031   0.012855  -0.006601
     2  H   -0.009031  -0.043080   0.000965   0.000965  -0.000067   0.000021
     3  H   -0.009031   0.000965  -0.043080   0.000965  -0.000068   0.000021
     4  H   -0.009031   0.000965   0.000965  -0.043080  -0.000068   0.000021
     5  H    0.012855  -0.000067  -0.000068  -0.000068  -0.016162  -0.009472
     6  H   -0.006601   0.000021   0.000021   0.000021  -0.009472   0.055841
 Mulliken charges and spin densities:
               1          2
     1  C   -0.486609   1.123833
     2  H    0.168439  -0.050228
     3  H    0.168439  -0.050228
     4  H    0.168440  -0.050228
     5  H    0.004620  -0.012981
     6  H   -0.023328   0.039832
 Sum of Mulliken charges =  -0.00000   1.00000
 Mulliken charges and spin densities with hydrogens summed into heavy atoms:
               1          2
     1  C   -0.000000   1.000000
 Electronic spatial extent (au):  <R**2>=             88.8701
 Charge=             -0.0000 electrons
 Dipole moment (field-independent basis, Debye):
    X=              0.3783    Y=             -0.0000    Z=              0.0000  Tot=              0.3783
 Quadrupole moment (field-independent basis, Debye-Ang):
   XX=            -10.8744   YY=             -9.1704   ZZ=             -9.1704
   XY=              0.0002   XZ=             -0.0000   YZ=             -0.0000
 Traceless Quadrupole moment (field-independent basis, Debye-Ang):
   XX=             -1.1360   YY=              0.5680   ZZ=              0.5680
   XY=              0.0002   XZ=             -0.0000   YZ=             -0.0000
 Octapole moment (field-independent basis, Debye-Ang**2):
  XXX=              0.9237  YYY=              0.0180  ZZZ=             -0.8208  XYY=              1.7544
  XXY=              0.0002  XXZ=             -0.0000  XZZ=              1.7544  YZZ=             -0.0181
  YYZ=              0.8208  XYZ=              0.0001
 Hexadecapole moment (field-independent basis, Debye-Ang**3):
 XXXX=            -96.7434 YYYY=            -15.9548 ZZZZ=            -15.9548 XXXY=              0.0005
 XXXZ=             -0.0001 YYYX=              0.0110 YYYZ=             -0.0000 ZZZX=             -0.4777
 ZZZY=              0.0000 XXYY=            -20.7468 XXZZ=            -20.7468 YYZZ=             -5.3183
 XXYZ=              0.0001 YYXZ=              0.4777 ZZXY=             -0.0104
 N-N= 1.340106122533D+01 E-N=-1.207022471047D+02  KE= 4.047390160911D+01
                          Isotropic Fermi Contact Couplings
        Atom                 a.u.       MegaHertz       Gauss      10(-4) cm-1
     1  C(13)              0.10811     121.53815      43.36783      40.54076
     2  H(1)              -0.01547     -69.13485     -24.66903     -23.06090
     3  H(1)              -0.01547     -69.13485     -24.66903     -23.06090
     4  H(1)              -0.01547     -69.13486     -24.66903     -23.06091
     5  H(1)              -0.00443     -19.79871      -7.06467      -6.60414
     6  H(1)               0.01276      57.02665      20.34853      19.02204
 --------------------------------------------------------
       Center         ----  Spin Dipole Couplings  ----
                      3XX-RR        3YY-RR        3ZZ-RR
 --------------------------------------------------------
     1   Atom        1.075129     -0.537565     -0.537565
     2   Atom       -0.005510      0.040847     -0.035337
     3   Atom       -0.005511     -0.071536      0.077047
     4   Atom       -0.005511      0.038955     -0.033444
     5   Atom        0.033254     -0.016627     -0.016627
     6   Atom        0.006203     -0.003101     -0.003101
 --------------------------------------------------------
                        XY            XZ            YZ
 --------------------------------------------------------
     1   Atom       -0.000180      0.000024     -0.000000
     2   Atom        0.002425      0.001382      0.063792
     3   Atom       -0.000028     -0.002785      0.001093
     4   Atom       -0.002394      0.001403     -0.064885
     5   Atom        0.000000     -0.000000      0.000000
     6   Atom        0.000000      0.000000      0.000000
 --------------------------------------------------------


 ---------------------------------------------------------------------------------
              Anisotropic Spin Dipole Couplings in Principal Axis System
 ---------------------------------------------------------------------------------

       Atom             a.u.   MegaHertz   Gauss  10(-4) cm-1        Axes

              Baa    -0.5376   -72.136   -25.740   -24.062  0.0001  0.9397  0.3420
     1 C(13)  Bbb    -0.5376   -72.136   -25.740   -24.062 -0.0001 -0.3420  0.9397
              Bcc     1.0751   144.272    51.480    48.124  1.0000 -0.0001  0.0000
 
              Baa    -0.0715   -38.173   -13.621   -12.733 -0.0001 -0.4936  0.8697
     2 H(1)   Bbb    -0.0056    -2.990    -1.067    -0.997  0.9994 -0.0294 -0.0166
              Bcc     0.0771    41.163    14.688    13.730  0.0337  0.8692  0.4933
 
              Baa    -0.0715   -38.173   -13.621   -12.733  0.0001  1.0000 -0.0074
     3 H(1)   Bbb    -0.0056    -2.990    -1.067    -0.997  0.9994  0.0001  0.0337
              Bcc     0.0771    41.163    14.688    13.730 -0.0337  0.0074  0.9994
 
              Baa    -0.0715   -38.173   -13.621   -12.733  0.0000  0.5064  0.8623
     4 H(1)   Bbb    -0.0056    -2.990    -1.067    -0.997  0.9994  0.0289 -0.0170
              Bcc     0.0771    41.163    14.688    13.730 -0.0336  0.8618 -0.5061
 
              Baa    -0.0166    -8.871    -3.165    -2.959 -0.0000  0.7441 -0.6681
     5 H(1)   Bbb    -0.0166    -8.871    -3.165    -2.959 -0.0000  0.6681  0.7441
              Bcc     0.0333    17.743     6.331     5.918  1.0000  0.0000 -0.0000
 
              Baa    -0.0031    -1.655    -0.590    -0.552  0.0000  0.7484 -0.6633
     6 H(1)   Bbb    -0.0031    -1.655    -0.590    -0.552 -0.0000  0.6633  0.7484
              Bcc     0.0062     3.310     1.181     1.104  1.0000  0.0000  0.0000
 

 ---------------------------------------------------------------------------------

 No NMR shielding tensors so no spin-rotation constants.
 Leave Link  601 at Thu Sep  5 23:07:20 2019, MaxMem=  2684354560 cpu:         3.3
 (Enter /soft/gaussian/09-e.01/g09/l9999.exe)
 1\1\GINC-B442\POpt\UB3LYP\6-31G(d)\C1H5(2)\ELLIOTT\05-Sep-2019\1\\#P b
 3lyp/6-31g* # SCF=(xqc) # POpt=(calcfc) # int=ultrafine\\comment:\\0,2
 \C\H,1,R1\H,1,R2,2,A2\H,1,R3,2,A3,3,D3,0\H,1,R4,2,A4,3,D4,0\X,5,R5,1,A
 5,2,D5,0\H,5,R6,6,A6,1,D6,0\\R1=1.08283153\R2=1.08283173\A2=119.919811
 27\R3=1.08283167\A3=119.9199021\D3=174.36237698\R4=2.56555898\A4=91.63
 334278\D4=267.17795091\A6=89.99877247\D6=180.00126787\A5=90.\D5=180.\R
 5=1.\R6=0.8829\\Version=ES64L-G09RevE.01\State=2-A\HF=-41.0049582\S2=0
 .753796\S2-1=0.\S2A=0.750008\RMSD=9.935e-09\RMSF=2.081e-02\Dipole=0.00
 73236,-0.1485949,0.0042403\Quadrupole=0.4192384,-0.8405149,0.4212766,0
 .0621757,-0.0017688,0.035956\PG=C01 [X(C1H5)]\\@


 YOU KNOW YOU'VE SPOKEN TOO LONG WHEN THE AUDIENCE STOPS LOOKING AT
 THEIR WATCHES AND STARTS SHAKING THEM.
 Job cpu time:       0 days  0 hours  1 minutes  6.3 seconds.
 File lengths (MBytes):  RWF=     87 Int=      0 D2E=      0 Chk=      2 Scr=      2
 Normal termination of Gaussian 09 at Thu Sep  5 23:07:20 2019.
