 Entering Gaussian System, Link 0=g09
 Input=run.inp
 Output=run.out
 Initial command:
 /soft/gaussian/09-e.01/g09/l1.exe "/blues/gpfs/home/elliott/Packages/PACC/moldriver/rcdriver/tmprundir/RXN/CH3.H2/MDUSDFXREFXETQ/0_0/2_1/UHFFFAOYSA-N/CH4.H/HXBDELFRWIQQII/0_0/1_2/UHFFFAOYSA-N/2/ezvlpJU/SCANS/R6/01/RUN/OPTI/A03/Gau-155344.inp" -scrdir="/blues/gpfs/home/elliott/Packages/PACC/moldriver/rcdriver/tmprundir/RXN/CH3.H2/MDUSDFXREFXETQ/0_0/2_1/UHFFFAOYSA-N/CH4.H/HXBDELFRWIQQII/0_0/1_2/UHFFFAOYSA-N/2/ezvlpJU/SCANS/R6/01/RUN/OPTI/A03/"
 Entering Link 1 = /soft/gaussian/09-e.01/g09/l1.exe PID=    155345.
  
 Copyright (c) 1988,1990,1992,1993,1995,1998,2003,2009,2015,
            Gaussian, Inc.  All Rights Reserved.
  
 This is part of the Gaussian(R) 09 program.  It is based on
 the Gaussian(R) 03 system (copyright 2003, Gaussian, Inc.),
 the Gaussian(R) 98 system (copyright 1998, Gaussian, Inc.),
 the Gaussian(R) 94 system (copyright 1995, Gaussian, Inc.),
 the Gaussian 92(TM) system (copyright 1992, Gaussian, Inc.),
 the Gaussian 90(TM) system (copyright 1990, Gaussian, Inc.),
 the Gaussian 88(TM) system (copyright 1988, Gaussian, Inc.),
 the Gaussian 86(TM) system (copyright 1986, Carnegie Mellon
 University), and the Gaussian 82(TM) system (copyright 1983,
 Carnegie Mellon University). Gaussian is a federally registered
 trademark of Gaussian, Inc.
  
 This software contains proprietary and confidential information,
 including trade secrets, belonging to Gaussian, Inc.
  
 This software is provided under written license and may be
 used, copied, transmitted, or stored only in accord with that
 written license.
  
 The following legend is applicable only to US Government
 contracts under FAR:
  
                    RESTRICTED RIGHTS LEGEND
  
 Use, reproduction and disclosure by the US Government is
 subject to restrictions as set forth in subparagraphs (a)
 and (c) of the Commercial Computer Software - Restricted
 Rights clause in FAR 52.227-19.
  
 Gaussian, Inc.
 340 Quinnipiac St., Bldg. 40, Wallingford CT 06492
  
  
 ---------------------------------------------------------------
 Warning -- This program may not be used in any manner that
 competes with the business of Gaussian, Inc. or will provide
 assistance to any competitor of Gaussian, Inc.  The licensee
 of this program is prohibited from giving any competitor of
 Gaussian, Inc. access to this program.  By using this program,
 the user acknowledges that Gaussian, Inc. is engaged in the
 business of creating and licensing software in the field of
 computational chemistry and represents and warrants to the
 licensee that it is not a competitor of Gaussian, Inc. and that
 it will not use this program in any manner prohibited above.
 ---------------------------------------------------------------
  

 Cite this work as:
 Gaussian 09, Revision E.01,
 M. J. Frisch, G. W. Trucks, H. B. Schlegel, G. E. Scuseria, 
 M. A. Robb, J. R. Cheeseman, G. Scalmani, V. Barone, B. Mennucci, 
 G. A. Petersson, H. Nakatsuji, M. Caricato, X. Li, H. P. Hratchian, 
 A. F. Izmaylov, J. Bloino, G. Zheng, J. L. Sonnenberg, M. Hada, 
 M. Ehara, K. Toyota, R. Fukuda, J. Hasegawa, M. Ishida, T. Nakajima, 
 Y. Honda, O. Kitao, H. Nakai, T. Vreven, J. A. Montgomery, Jr., 
 J. E. Peralta, F. Ogliaro, M. Bearpark, J. J. Heyd, E. Brothers, 
 K. N. Kudin, V. N. Staroverov, T. Keith, R. Kobayashi, J. Normand, 
 K. Raghavachari, A. Rendell, J. C. Burant, S. S. Iyengar, J. Tomasi, 
 M. Cossi, N. Rega, J. M. Millam, M. Klene, J. E. Knox, J. B. Cross, 
 V. Bakken, C. Adamo, J. Jaramillo, R. Gomperts, R. E. Stratmann, 
 O. Yazyev, A. J. Austin, R. Cammi, C. Pomelli, J. W. Ochterski, 
 R. L. Martin, K. Morokuma, V. G. Zakrzewski, G. A. Voth, 
 P. Salvador, J. J. Dannenberg, S. Dapprich, A. D. Daniels, 
 O. Farkas, J. B. Foresman, J. V. Ortiz, J. Cioslowski, 
 and D. J. Fox, Gaussian, Inc., Wallingford CT, 2013.
 
 ******************************************
 Gaussian 09:  ES64L-G09RevE.01 30-Nov-2015
                 5-Sep-2019 
 ******************************************
 %mem=20GB
 %NProcShared=10
 Will use up to   10 processors via shared memory.
 -----------------------------------------------------
 #P b3lyp/6-31g* # SCF=(xqc) # POpt=() # int=ultrafine
 -----------------------------------------------------
 1/10=7,14=-1,26=4,38=1/1,3;
 2/12=2,17=6,18=5,29=3,40=1/2;
 3/5=1,6=6,7=1,11=2,16=1,25=1,30=1,71=1,74=-5,75=-5/1,2,3;
 4//1;
 5/5=2,8=3,13=1,38=5/2,8;
 6/7=2,8=2,9=2,10=2,28=1/1;
 7/29=1/1,2,3,16;
 1/10=7,14=-1,26=4/3(2);
 2/29=3/2;
 99//99;
 2/29=3/2;
 3/5=1,6=6,7=1,11=2,16=1,25=1,30=1,71=1,74=-5,75=-5/1,2,3;
 4/5=5,16=3,69=1/1;
 5/5=2,8=3,13=1,38=5/2,8;
 7//1,2,3,16;
 1/14=-1,26=4/3(-5);
 2/29=3/2;
 6/7=2,8=2,9=2,10=2,19=2,28=1/1;
 99/9=1/99;
 Leave Link    1 at Thu Sep  5 23:06:33 2019, MaxMem=  2684354560 cpu:         0.9
 (Enter /soft/gaussian/09-e.01/g09/l101.exe)
 --------
 comment:
 --------
 Symbolic Z-matrix:
 Charge =  0 Multiplicity = 2
 C
 H                    1    R1
 H                    1    R2       2    A2
 H                    1    R3       2    A3       3    D3       0
 H                    1    R4       2    A4       3    D4       0
 X                    5    R5       1    A5       2    D5       0
 H                    5    R6       6    A6       1    D6       0
       Variables:
  R1                    1.0958                   
  R2                    1.0811                   
  A2                  120.2234                   
  R3                    1.081                    
  A3                  120.2259                   
  D3                  175.793                    
  R4                    2.6848                   
  A4                   90.3282                   
  D4                  268.5794                   
  A6                   90.2415                   
  D6                  179.7833                   
       Constants:
  A5                   90.                       
  D5                  180.                       
  R5                    1.                       
  R6                    0.8829                   
 
 NAtoms=      6 NQM=        6 NQMF=       0 NMMI=      0 NMMIF=      0
                NMic=       0 NMicF=      0.
                    Isotopes and Nuclear Properties:
 (Nuclear quadrupole moments (NQMom) in fm**2, nuclear magnetic moments (NMagM)
  in nuclear magnetons)

  Atom         1           2           3           4           5           6
 IAtWgt=          12           1           1           1           1           1
 AtmWgt=  12.0000000   1.0078250   1.0078250   1.0078250   1.0078250   1.0078250
 NucSpn=           0           1           1           1           1           1
 AtZEff=   0.0000000   0.0000000   0.0000000   0.0000000   0.0000000   0.0000000
 NQMom=    0.0000000   0.0000000   0.0000000   0.0000000   0.0000000   0.0000000
 NMagM=    0.0000000   2.7928460   2.7928460   2.7928460   2.7928460   2.7928460
 AtZNuc=   6.0000000   1.0000000   1.0000000   1.0000000   1.0000000   1.0000000
 Leave Link  101 at Thu Sep  5 23:06:33 2019, MaxMem=  2684354560 cpu:         0.7
 (Enter /soft/gaussian/09-e.01/g09/l103.exe)

 GradGradGradGradGradGradGradGradGradGradGradGradGradGradGradGradGradGrad
 Berny optimization.
 Initialization pass.
                       ----------------------------
                       !    Initial Parameters    !
                       ! (Angstroms and Degrees)  !
 ----------------------                            ----------------------
 !      Name          Value   Derivative information (Atomic Units)     !
 ------------------------------------------------------------------------
 !       R1          1.0958   estimate D2E/DX2                          !
 !       R2          1.0811   estimate D2E/DX2                          !
 !       A2        120.2234   estimate D2E/DX2                          !
 !       R3          1.081    estimate D2E/DX2                          !
 !       A3        120.2259   estimate D2E/DX2                          !
 !       D3        175.793    estimate D2E/DX2                          !
 !       R4          2.6848   estimate D2E/DX2                          !
 !       A4         90.3282   estimate D2E/DX2                          !
 !       D4        268.5794   estimate D2E/DX2                          !
 !       A6         90.2415   estimate D2E/DX2                          !
 !       D6        179.7833   estimate D2E/DX2                          !
 !       A5         90.0      Frozen                                    !
 !       D5        180.0      Frozen                                    !
 !       R5          1.0      Frozen                                    !
 !       R6          0.8829   Frozen                                    !
 ------------------------------------------------------------------------
 Trust Radius=3.00D-01 FncErr=1.00D-07 GrdErr=1.00D-06
 Number of steps in this run=     25 maximum allowed number of steps=    100.
 GradGradGradGradGradGradGradGradGradGradGradGradGradGradGradGradGradGrad

 Leave Link  103 at Thu Sep  5 23:06:33 2019, MaxMem=  2684354560 cpu:         0.2
 (Enter /soft/gaussian/09-e.01/g09/l202.exe)
 ---------------------------------------------------------------------------------------------------
                            Z-MATRIX (ANGSTROMS AND DEGREES)
   CD    Cent   Atom    N1       Length/X        N2       Alpha/Y        N3        Beta/Z          J
 ---------------------------------------------------------------------------------------------------
      1      1  C 
      2      2  H        1   1.095800(     1)
      3      3  H        1   1.081100(     2)      2  120.223(     7)
      4      4  H        1   1.081000(     3)      2  120.226(     8)      3  175.793(    12)      0
      5      5  H        1   2.684800(     4)      2   90.328(     9)      3  268.579(    13)      0
      6         X        5   1.000000(     5)      1   90.000(    10)      2  180.000(    14)      0
      7      6  H        5   0.882900(     6)      6   90.242(    11)      1  179.783(    15)      0
 ---------------------------------------------------------------------------------------------------
                         Z-Matrix orientation:                         
 ---------------------------------------------------------------------
 Center     Atomic      Atomic             Coordinates (Angstroms)
 Number     Number       Type             X           Y           Z
 ---------------------------------------------------------------------
      1          6           0        0.000000    0.000000    0.000000
      2          1           0        0.000000    0.000000    1.095800
      3          1           0        0.934145    0.000000   -0.544196
      4          1           0       -0.931518   -0.068521   -0.544187
      5          1           0       -0.066559    2.683931   -0.015379
      6         -1           0       -0.066417    2.678204   -1.015363
      7          1           0       -0.085110    3.566635   -0.016715
 ---------------------------------------------------------------------
                    Distance matrix (angstroms):
                    1          2          3          4          5
     1  C    0.000000
     2  H    1.095800   0.000000
     3  H    1.081100   1.887383   0.000000
     4  H    1.081000   1.887320   1.866922   0.000000
     5  H    2.684800   2.905621   2.912824   2.933220   0.000000
     6  X    2.864987   3.410894   2.897568   2.918031   1.000000
     7  H    3.567689   3.737087   3.746732   3.769482   0.882900
                    6          7
     6  X    0.000000
     7  H    1.336770   0.000000
 Stoichiometry    CH5(2)
 Framework group  C1[X(CH5)]
 Deg. of freedom    12
 Full point group                 C1      NOp   1
 Largest Abelian subgroup         C1      NOp   1
 Largest concise Abelian subgroup C1      NOp   1
                         Standard orientation:                         
 ---------------------------------------------------------------------
 Center     Atomic      Atomic             Coordinates (Angstroms)
 Number     Number       Type             X           Y           Z
 ---------------------------------------------------------------------
      1          6           0        0.562171    0.000330   -0.000770
      2          1           0        0.565887    1.096080   -0.010610
      3          1           0        0.581566   -0.552299   -0.929750
      4          1           0        0.607649   -0.535616    0.936915
      5          1           0       -2.122616   -0.005896    0.004803
      6          1           0       -3.005513   -0.004252    0.003263
 ---------------------------------------------------------------------
 Rotational constants (GHZ):    141.8238697     25.8222809     25.7546874
 Leave Link  202 at Thu Sep  5 23:06:33 2019, MaxMem=  2684354560 cpu:         0.2
 (Enter /soft/gaussian/09-e.01/g09/l301.exe)
 Standard basis: 6-31G(d) (6D, 7F)
 Ernie: Thresh=  0.10000D-02 Tol=  0.10000D-05 Strict=F.
 There are    25 symmetry adapted cartesian basis functions of A   symmetry.
 There are    25 symmetry adapted basis functions of A   symmetry.
    25 basis functions,    48 primitive gaussians,    25 cartesian basis functions
     6 alpha electrons        5 beta electrons
       nuclear repulsion energy        13.2550747122 Hartrees.
 IExCor=  402 DFT=T Ex+Corr=B3LYP ExCW=0 ScaHFX=  0.200000
 ScaDFX=  0.800000  0.720000  1.000000  0.810000 ScalE2=  1.000000  1.000000
 IRadAn=      5 IRanWt=     -1 IRanGd=            0 ICorTp=0 IEmpDi=  4
 NAtoms=    6 NActive=    6 NUniq=    6 SFac= 1.00D+00 NAtFMM=   60 NAOKFM=F Big=F
 Integral buffers will be    131072 words long.
 Raffenetti 2 integral format.
 Two-electron integral symmetry is turned on.
 Leave Link  301 at Thu Sep  5 23:06:33 2019, MaxMem=  2684354560 cpu:         0.7
 (Enter /soft/gaussian/09-e.01/g09/l302.exe)
 NPDir=0 NMtPBC=     1 NCelOv=     1 NCel=       1 NClECP=     1 NCelD=      1
         NCelK=      1 NCelE2=     1 NClLst=     1 CellRange=     0.0.
 One-electron integrals computed using PRISM.
 NBasis=    25 RedAO= T EigKep=  2.68D-02  NBF=    25
 NBsUse=    25 1.00D-06 EigRej= -1.00D+00 NBFU=    25
 Precomputing XC quadrature grid using
 IXCGrd= 4 IRadAn=           5 IRanWt=          -1 IRanGd=           0 AccXCQ= 0.00D+00.
 Generated NRdTot=       0 NPtTot=           0 NUsed=           0 NTot=          32
 NSgBfM=    25    25    25    25    25 MxSgAt=     6 MxSgA2=     6.
 Leave Link  302 at Thu Sep  5 23:06:33 2019, MaxMem=  2684354560 cpu:         1.7
 (Enter /soft/gaussian/09-e.01/g09/l303.exe)
 DipDrv:  MaxL=1.
 Leave Link  303 at Thu Sep  5 23:06:33 2019, MaxMem=  2684354560 cpu:         0.2
 (Enter /soft/gaussian/09-e.01/g09/l401.exe)
 ExpMin= 1.61D-01 ExpMax= 3.05D+03 ExpMxC= 4.57D+02 IAcc=3 IRadAn=         5 AccDes= 0.00D+00
 Harris functional with IExCor=  402 and IRadAn=       5 diagonalized for initial guess.
 HarFok:  IExCor=  402 AccDes= 0.00D+00 IRadAn=         5 IDoV= 1 UseB2=F ITyADJ=14
 ICtDFT=  3500011 ScaDFX=  1.000000  1.000000  1.000000  1.000000
 FoFCou: FMM=F IPFlag=           0 FMFlag=      100000 FMFlg1=           0
         NFxFlg=           0 DoJE=T BraDBF=F KetDBF=T FulRan=T
         wScrn=  0.000000 ICntrl=     500 IOpCl=  0 I1Cent=   200000004 NGrid=           0
         NMat0=    1 NMatS0=      1 NMatT0=    0 NMatD0=    1 NMtDS0=    0 NMtDT0=    0
 Petite list used in FoFCou.
 Harris En= -40.9974805132301    
 JPrj=0 DoOrth=F DoCkMO=F.
 Initial guess <Sx>= 0.0000 <Sy>= 0.0000 <Sz>= 0.5000 <S**2>= 0.7500 S= 0.5000
 Leave Link  401 at Thu Sep  5 23:06:33 2019, MaxMem=  2684354560 cpu:         2.2
 (Enter /soft/gaussian/09-e.01/g09/l502.exe)
 UHF open shell SCF:
 Using DIIS extrapolation, IDIIS=  1040.
 Integral symmetry usage will be decided dynamically.
 Keep R1 and R2 ints in memory in canonical form, NReq=976418.
 IVT=        8268 IEndB=        8268 NGot=  2684354560 MDV=  2684240343
 LenX=  2684240343 LenY=  2684239277
 Requested convergence on RMS density matrix=1.00D-08 within  64 cycles.
 Requested convergence on MAX density matrix=1.00D-06.
 Requested convergence on             energy=1.00D-06.
 No special actions if energy rises.
 FoFCou: FMM=F IPFlag=           0 FMFlag=           0 FMFlg1=           0
         NFxFlg=           0 DoJE=F BraDBF=F KetDBF=F FulRan=T
         wScrn=  0.000000 ICntrl=     600 IOpCl=  0 I1Cent=           0 NGrid=           0
         NMat0=    1 NMatS0=    325 NMatT0=    0 NMatD0=    1 NMtDS0=    0 NMtDT0=    0
 Symmetry not used in FoFCou.
 Integral accuracy reduced to 1.0D-05 until final iterations.

 Cycle   1  Pass 0  IDiag  1:
 E= -40.9593235179043    
 DIIS: error= 5.27D-02 at cycle   1 NSaved=   1.
 NSaved= 1 IEnMin= 1 EnMin= -40.9593235179043     IErMin= 1 ErrMin= 5.27D-02
 ErrMax= 5.27D-02  0.00D+00 EMaxC= 1.00D-01 BMatC= 1.52D-01 BMatP= 1.52D-01
 IDIUse=3 WtCom= 4.73D-01 WtEn= 5.27D-01
 Coeff-Com:  0.100D+01
 Coeff-En:   0.100D+01
 Coeff:      0.100D+01
 Gap=     0.223 Goal=   None    Shift=    0.000
 Gap=     0.433 Goal=   None    Shift=    0.000
 GapD=    0.223 DampG=1.000 DampE=0.500 DampFc=0.5000 IDamp=-1.
 Damping current iteration by 5.00D-01
 RMSDP=1.43D-02 MaxDP=1.53D-01              OVMax= 1.40D-01

 Cycle   2  Pass 0  IDiag  1:
 E= -40.9816548413435     Delta-E=       -0.022331323439 Rises=F Damp=T
 DIIS: error= 9.28D-03 at cycle   2 NSaved=   2.
 NSaved= 2 IEnMin= 2 EnMin= -40.9816548413435     IErMin= 2 ErrMin= 9.28D-03
 ErrMax= 9.28D-03  0.00D+00 EMaxC= 1.00D-01 BMatC= 6.63D-03 BMatP= 1.52D-01
 IDIUse=3 WtCom= 9.07D-01 WtEn= 9.28D-02
 Coeff-Com: -0.641D-02 0.101D+01
 Coeff-En:   0.000D+00 0.100D+01
 Coeff:     -0.581D-02 0.101D+01
 Gap=     0.304 Goal=   None    Shift=    0.000
 Gap=     0.355 Goal=   None    Shift=    0.000
 RMSDP=2.19D-03 MaxDP=1.64D-02 DE=-2.23D-02 OVMax= 8.83D-02

 Cycle   3  Pass 0  IDiag  1:
 E= -41.0047108009178     Delta-E=       -0.023055959574 Rises=F Damp=F
 DIIS: error= 2.05D-03 at cycle   3 NSaved=   3.
 NSaved= 3 IEnMin= 3 EnMin= -41.0047108009178     IErMin= 3 ErrMin= 2.05D-03
 ErrMax= 2.05D-03  0.00D+00 EMaxC= 1.00D-01 BMatC= 2.06D-04 BMatP= 6.63D-03
 IDIUse=3 WtCom= 9.79D-01 WtEn= 2.05D-02
 Coeff-Com: -0.236D-01 0.685D-01 0.955D+00
 Coeff-En:   0.000D+00 0.000D+00 0.100D+01
 Coeff:     -0.231D-01 0.671D-01 0.956D+00
 Gap=     0.304 Goal=   None    Shift=    0.000
 Gap=     0.338 Goal=   None    Shift=    0.000
 RMSDP=3.42D-04 MaxDP=3.24D-03 DE=-2.31D-02 OVMax= 4.22D-03

 Cycle   4  Pass 0  IDiag  1:
 E= -41.0047981748359     Delta-E=       -0.000087373918 Rises=F Damp=F
 DIIS: error= 3.41D-04 at cycle   4 NSaved=   4.
 NSaved= 4 IEnMin= 4 EnMin= -41.0047981748359     IErMin= 4 ErrMin= 3.41D-04
 ErrMax= 3.41D-04  0.00D+00 EMaxC= 1.00D-01 BMatC= 1.02D-05 BMatP= 2.06D-04
 IDIUse=3 WtCom= 9.97D-01 WtEn= 3.41D-03
 Coeff-Com:  0.366D-02-0.262D-01-0.172D+00 0.119D+01
 Coeff-En:   0.000D+00 0.000D+00 0.000D+00 0.100D+01
 Coeff:      0.365D-02-0.261D-01-0.171D+00 0.119D+01
 Gap=     0.305 Goal=   None    Shift=    0.000
 Gap=     0.338 Goal=   None    Shift=    0.000
 RMSDP=1.40D-04 MaxDP=1.17D-03 DE=-8.74D-05 OVMax= 1.35D-03

 Cycle   5  Pass 0  IDiag  1:
 E= -41.0048059610079     Delta-E=       -0.000007786172 Rises=F Damp=F
 DIIS: error= 1.30D-04 at cycle   5 NSaved=   5.
 NSaved= 5 IEnMin= 5 EnMin= -41.0048059610079     IErMin= 5 ErrMin= 1.30D-04
 ErrMax= 1.30D-04  0.00D+00 EMaxC= 1.00D-01 BMatC= 8.29D-07 BMatP= 1.02D-05
 IDIUse=3 WtCom= 9.99D-01 WtEn= 1.30D-03
 Coeff-Com:  0.740D-03-0.100D-02-0.485D-01-0.692D-01 0.112D+01
 Coeff-En:   0.000D+00 0.000D+00 0.000D+00 0.000D+00 0.100D+01
 Coeff:      0.739D-03-0.100D-02-0.485D-01-0.691D-01 0.112D+01
 Gap=     0.305 Goal=   None    Shift=    0.000
 Gap=     0.338 Goal=   None    Shift=    0.000
 RMSDP=4.00D-05 MaxDP=3.15D-04 DE=-7.79D-06 OVMax= 4.79D-04

 Cycle   6  Pass 0  IDiag  1:
 E= -41.0048065266496     Delta-E=       -0.000000565642 Rises=F Damp=F
 DIIS: error= 6.31D-05 at cycle   6 NSaved=   6.
 NSaved= 6 IEnMin= 6 EnMin= -41.0048065266496     IErMin= 6 ErrMin= 6.31D-05
 ErrMax= 6.31D-05  0.00D+00 EMaxC= 1.00D-01 BMatC= 7.11D-08 BMatP= 8.29D-07
 IDIUse=1 WtCom= 1.00D+00 WtEn= 0.00D+00
 Coeff-Com: -0.176D-04 0.152D-02 0.156D-02-0.950D-01 0.234D+00 0.858D+00
 Coeff:     -0.176D-04 0.152D-02 0.156D-02-0.950D-01 0.234D+00 0.858D+00
 Gap=     0.305 Goal=   None    Shift=    0.000
 Gap=     0.338 Goal=   None    Shift=    0.000
 RMSDP=9.28D-06 MaxDP=9.61D-05 DE=-5.66D-07 OVMax= 1.82D-04

 Initial convergence to 1.0D-05 achieved.  Increase integral accuracy.
 Cycle   7  Pass 1  IDiag  1:
 E= -41.0048059176446     Delta-E=        0.000000609005 Rises=F Damp=F
 DIIS: error= 1.13D-05 at cycle   1 NSaved=   1.
 NSaved= 1 IEnMin= 1 EnMin= -41.0048059176446     IErMin= 1 ErrMin= 1.13D-05
 ErrMax= 1.13D-05  0.00D+00 EMaxC= 1.00D-01 BMatC= 2.51D-09 BMatP= 2.51D-09
 IDIUse=1 WtCom= 1.00D+00 WtEn= 0.00D+00
 Coeff-Com:  0.100D+01
 Coeff:      0.100D+01
 Gap=     0.305 Goal=   None    Shift=    0.000
 Gap=     0.338 Goal=   None    Shift=    0.000
 RMSDP=9.28D-06 MaxDP=9.61D-05 DE= 6.09D-07 OVMax= 3.99D-05

 Cycle   8  Pass 1  IDiag  1:
 E= -41.0048059189822     Delta-E=       -0.000000001338 Rises=F Damp=F
 DIIS: error= 5.98D-06 at cycle   2 NSaved=   2.
 NSaved= 2 IEnMin= 2 EnMin= -41.0048059189822     IErMin= 2 ErrMin= 5.98D-06
 ErrMax= 5.98D-06  0.00D+00 EMaxC= 1.00D-01 BMatC= 7.34D-10 BMatP= 2.51D-09
 IDIUse=1 WtCom= 1.00D+00 WtEn= 0.00D+00
 Coeff-Com:  0.278D+00 0.722D+00
 Coeff:      0.278D+00 0.722D+00
 Gap=     0.305 Goal=   None    Shift=    0.000
 Gap=     0.338 Goal=   None    Shift=    0.000
 RMSDP=7.67D-07 MaxDP=7.94D-06 DE=-1.34D-09 OVMax= 1.52D-05

 Cycle   9  Pass 1  IDiag  1:
 E= -41.0048059193136     Delta-E=       -0.000000000331 Rises=F Damp=F
 DIIS: error= 2.23D-06 at cycle   3 NSaved=   3.
 NSaved= 3 IEnMin= 3 EnMin= -41.0048059193136     IErMin= 3 ErrMin= 2.23D-06
 ErrMax= 2.23D-06  0.00D+00 EMaxC= 1.00D-01 BMatC= 1.39D-10 BMatP= 7.34D-10
 IDIUse=1 WtCom= 1.00D+00 WtEn= 0.00D+00
 Coeff-Com: -0.151D+00 0.686D-01 0.108D+01
 Coeff:     -0.151D+00 0.686D-01 0.108D+01
 Gap=     0.305 Goal=   None    Shift=    0.000
 Gap=     0.338 Goal=   None    Shift=    0.000
 RMSDP=4.97D-07 MaxDP=4.62D-06 DE=-3.31D-10 OVMax= 9.09D-06

 Cycle  10  Pass 1  IDiag  1:
 E= -41.0048059194195     Delta-E=       -0.000000000106 Rises=F Damp=F
 DIIS: error= 1.19D-06 at cycle   4 NSaved=   4.
 NSaved= 4 IEnMin= 4 EnMin= -41.0048059194195     IErMin= 4 ErrMin= 1.19D-06
 ErrMax= 1.19D-06  0.00D+00 EMaxC= 1.00D-01 BMatC= 3.63D-11 BMatP= 1.39D-10
 IDIUse=1 WtCom= 1.00D+00 WtEn= 0.00D+00
 Coeff-Com: -0.115D+00-0.117D+00 0.437D+00 0.795D+00
 Coeff:     -0.115D+00-0.117D+00 0.437D+00 0.795D+00
 Gap=     0.305 Goal=   None    Shift=    0.000
 Gap=     0.338 Goal=   None    Shift=    0.000
 RMSDP=2.32D-07 MaxDP=2.92D-06 DE=-1.06D-10 OVMax= 4.88D-06

 Cycle  11  Pass 1  IDiag  1:
 E= -41.0048059194414     Delta-E=       -0.000000000022 Rises=F Damp=F
 DIIS: error= 3.26D-07 at cycle   5 NSaved=   5.
 NSaved= 5 IEnMin= 5 EnMin= -41.0048059194414     IErMin= 5 ErrMin= 3.26D-07
 ErrMax= 3.26D-07  0.00D+00 EMaxC= 1.00D-01 BMatC= 1.51D-12 BMatP= 3.63D-11
 IDIUse=1 WtCom= 1.00D+00 WtEn= 0.00D+00
 Coeff-Com:  0.329D-01 0.250D-02-0.190D+00-0.919D-01 0.125D+01
 Coeff:      0.329D-01 0.250D-02-0.190D+00-0.919D-01 0.125D+01
 Gap=     0.305 Goal=   None    Shift=    0.000
 Gap=     0.338 Goal=   None    Shift=    0.000
 RMSDP=7.82D-08 MaxDP=9.30D-07 DE=-2.19D-11 OVMax= 1.76D-06

 Cycle  12  Pass 1  IDiag  1:
 E= -41.0048059194432     Delta-E=       -0.000000000002 Rises=F Damp=F
 DIIS: error= 3.63D-08 at cycle   6 NSaved=   6.
 NSaved= 6 IEnMin= 6 EnMin= -41.0048059194432     IErMin= 6 ErrMin= 3.63D-08
 ErrMax= 3.63D-08  0.00D+00 EMaxC= 1.00D-01 BMatC= 3.88D-14 BMatP= 1.51D-12
 IDIUse=1 WtCom= 1.00D+00 WtEn= 0.00D+00
 Coeff-Com:  0.401D-02 0.391D-02-0.127D-01-0.323D-01-0.190D-02 0.104D+01
 Coeff:      0.401D-02 0.391D-02-0.127D-01-0.323D-01-0.190D-02 0.104D+01
 Gap=     0.305 Goal=   None    Shift=    0.000
 Gap=     0.338 Goal=   None    Shift=    0.000
 RMSDP=9.46D-09 MaxDP=8.50D-08 DE=-1.75D-12 OVMax= 1.67D-07

 SCF Done:  E(UB3LYP) =  -41.0048059194     A.U. after   12 cycles
            NFock= 12  Conv=0.95D-08     -V/T= 2.0135
 <Sx>= 0.0000 <Sy>= 0.0000 <Sz>= 0.5000 <S**2>= 0.7538 S= 0.5019
 <L.S>= 0.000000000000E+00
 KE= 4.045940341335D+01 PE=-1.204034649886D+02 EE= 2.568418094361D+01
 Annihilation of the first spin contaminant:
 S**2 before annihilation     0.7538,   after     0.7500
 Leave Link  502 at Thu Sep  5 23:06:34 2019, MaxMem=  2684354560 cpu:         6.7
 (Enter /soft/gaussian/09-e.01/g09/l508.exe)
 QCSCF skips out because SCF is already converged.
 Leave Link  508 at Thu Sep  5 23:06:34 2019, MaxMem=  2684354560 cpu:         0.0
 (Enter /soft/gaussian/09-e.01/g09/l601.exe)
 Copying SCF densities to generalized density rwf, IOpCl= 1 IROHF=0.

 **********************************************************************

            Population analysis using the SCF density.

 **********************************************************************

 Orbital symmetries:
 Alpha Orbitals:
       Occupied  (A) (A) (A) (A) (A) (A)
       Virtual   (A) (A) (A) (A) (A) (A) (A) (A) (A) (A) (A) (A)
                 (A) (A) (A) (A) (A) (A) (A)
 Beta  Orbitals:
       Occupied  (A) (A) (A) (A) (A)
       Virtual   (A) (A) (A) (A) (A) (A) (A) (A) (A) (A) (A) (A)
                 (A) (A) (A) (A) (A) (A) (A) (A)
 The electronic state is 2-A.
 Alpha  occ. eigenvalues --  -10.19819  -0.68543  -0.42076  -0.41985  -0.40121
 Alpha  occ. eigenvalues --   -0.22862
 Alpha virt. eigenvalues --    0.07637   0.11217   0.17681   0.17896   0.53872
 Alpha virt. eigenvalues --    0.54447   0.54518   0.62445   0.76989   0.90382
 Alpha virt. eigenvalues --    0.91056   0.95415   1.11041   1.64498   1.64571
 Alpha virt. eigenvalues --    2.00357   2.16846   2.18832   4.08495
  Beta  occ. eigenvalues --  -10.18427  -0.64537  -0.41125  -0.41048  -0.39870
  Beta virt. eigenvalues --   -0.06036   0.08715   0.12834   0.18236   0.18443
  Beta virt. eigenvalues --    0.54686   0.55274   0.59797   0.65259   0.78729
  Beta virt. eigenvalues --    0.90865   0.91544   0.97890   1.11711   1.71516
  Beta virt. eigenvalues --    1.71601   2.08862   2.17976   2.19952   4.12192
          Condensed to atoms (all electrons):
               1          2          3          4          5          6
     1  C    5.338625   0.378762   0.379962   0.379979   0.013061  -0.004327
     2  H    0.378762   0.513000  -0.028888  -0.028884   0.000086   0.000020
     3  H    0.379962  -0.028888   0.510960  -0.030176   0.000069   0.000029
     4  H    0.379979  -0.028884  -0.030176   0.510991   0.000056   0.000033
     5  H    0.013061   0.000086   0.000069   0.000056   0.612565   0.368737
     6  H   -0.004327   0.000020   0.000029   0.000033   0.368737   0.656819
          Atomic-Atomic Spin Densities.
               1          2          3          4          5          6
     1  C    1.150926  -0.008783  -0.009080  -0.009074   0.011162  -0.004727
     2  H   -0.008783  -0.044085   0.000920   0.000919  -0.000043   0.000011
     3  H   -0.009080   0.000920  -0.043327   0.000982  -0.000045   0.000009
     4  H   -0.009074   0.000919   0.000982  -0.043336  -0.000043   0.000009
     5  H    0.011162  -0.000043  -0.000045  -0.000043  -0.011475  -0.008642
     6  H   -0.004727   0.000011   0.000009   0.000009  -0.008642   0.044147
 Mulliken charges and spin densities:
               1          2
     1  C   -0.486062   1.130424
     2  H    0.165904  -0.051061
     3  H    0.168044  -0.050540
     4  H    0.168001  -0.050544
     5  H    0.005426  -0.009087
     6  H   -0.021312   0.030808
 Sum of Mulliken charges =   0.00000   1.00000
 Mulliken charges and spin densities with hydrogens summed into heavy atoms:
               1          2
     1  C    0.000000   1.000000
 Electronic spatial extent (au):  <R**2>=             93.1089
 Charge=              0.0000 electrons
 Dipole moment (field-independent basis, Debye):
    X=              0.3282    Y=             -0.0048    Z=             -0.0012  Tot=              0.3283
 Quadrupole moment (field-independent basis, Debye-Ang):
   XX=            -10.8269   YY=             -9.1517   ZZ=             -9.2003
   XY=             -0.0342   XZ=              0.0241   YZ=              0.0001
 Traceless Quadrupole moment (field-independent basis, Debye-Ang):
   XX=             -1.1006   YY=              0.5746   ZZ=              0.5260
   XY=             -0.0342   XZ=              0.0241   YZ=              0.0001
 Octapole moment (field-independent basis, Debye-Ang**2):
  XXX=              0.5459  YYY=              0.8235  ZZZ=              0.0114  XYY=              1.7857
  XXY=             -0.0449  XXZ=              0.0207  XZZ=              1.7870  YZZ=             -0.8287
  YYZ=             -0.0254  XYZ=             -0.0111
 Hexadecapole moment (field-independent basis, Debye-Ang**3):
 XXXX=           -102.2247 YYYY=            -16.0885 ZZZZ=            -15.9485 XXXY=             -0.1056
 XXXZ=              0.0639 YYYX=              0.4101 YYYZ=             -0.0010 ZZZX=              0.0693
 ZZZY=              0.0037 XXYY=            -22.0044 XXZZ=            -21.9386 YYZZ=             -5.3486
 XXYZ=             -0.0134 YYXZ=              0.0060 ZZXY=             -0.5187
 N-N= 1.325507471218D+01 E-N=-1.204034647949D+02  KE= 4.045940341335D+01
                          Isotropic Fermi Contact Couplings
        Atom                 a.u.       MegaHertz       Gauss      10(-4) cm-1
     1  C(13)              0.10892     122.44194      43.69033      40.84223
     2  H(1)              -0.01573     -70.32112     -25.09232     -23.45660
     3  H(1)              -0.01554     -69.46913     -24.78831     -23.17241
     4  H(1)              -0.01554     -69.46401     -24.78649     -23.17070
     5  H(1)              -0.00324     -14.50209      -5.17471      -4.83738
     6  H(1)               0.00961      42.96927      15.33250      14.33300
 --------------------------------------------------------
       Center         ----  Spin Dipole Couplings  ----
                      3XX-RR        3YY-RR        3ZZ-RR
 --------------------------------------------------------
     1   Atom        1.077263     -0.538291     -0.538973
     2   Atom       -0.006455      0.076563     -0.070107
     3   Atom       -0.005424     -0.032945      0.038369
     4   Atom       -0.005269     -0.035269      0.040537
     5   Atom        0.027788     -0.013899     -0.013889
     6   Atom        0.006062     -0.003032     -0.003030
 --------------------------------------------------------
                        XY            XZ            YZ
 --------------------------------------------------------
     1   Atom        0.028295     -0.022889     -0.000403
     2   Atom        0.000492     -0.000894     -0.001314
     3   Atom        0.000388     -0.002249      0.065719
     4   Atom       -0.001388      0.003524     -0.064400
     5   Atom       -0.000041      0.000023     -0.000002
     6   Atom       -0.000006      0.000001     -0.000000
 --------------------------------------------------------


 ---------------------------------------------------------------------------------
              Anisotropic Spin Dipole Couplings in Principal Axis System
 ---------------------------------------------------------------------------------

       Atom             a.u.   MegaHertz   Gauss  10(-4) cm-1        Axes

              Baa    -0.5393   -72.368   -25.823   -24.140  0.0141  0.0042  0.9999
     1 C(13)  Bbb    -0.5388   -72.300   -25.798   -24.117 -0.0176  0.9998 -0.0039
              Bcc     1.0781   144.668    51.621    48.256  0.9997  0.0175 -0.0142
 
              Baa    -0.0701   -37.419   -13.352   -12.482  0.0140  0.0089  0.9999
     2 H(1)   Bbb    -0.0064    -3.439    -1.227    -1.147  0.9999 -0.0061 -0.0139
              Bcc     0.0766    40.858    14.579    13.629  0.0060  0.9999 -0.0090
 
              Baa    -0.0721   -38.464   -13.725   -12.830 -0.0223  0.8590 -0.5115
     3 H(1)   Bbb    -0.0054    -2.896    -1.033    -0.966  0.9995  0.0298  0.0066
              Bcc     0.0775    41.360    14.758    13.796 -0.0209  0.5111  0.8592
 
              Baa    -0.0721   -38.467   -13.726   -12.831 -0.0082  0.8680  0.4965
     4 H(1)   Bbb    -0.0054    -2.899    -1.035    -0.967  0.9989  0.0295 -0.0352
              Bcc     0.0775    41.366    14.761    13.798  0.0452 -0.4957  0.8673
 
              Baa    -0.0139    -7.416    -2.646    -2.474  0.0009  0.9852  0.1715
     5 H(1)   Bbb    -0.0139    -7.411    -2.644    -2.472 -0.0007 -0.1715  0.9852
              Bcc     0.0278    14.826     5.290     4.946  1.0000 -0.0010  0.0006
 
              Baa    -0.0030    -1.618    -0.577    -0.540  0.0007  0.9878  0.1558
     6 H(1)   Bbb    -0.0030    -1.616    -0.577    -0.539 -0.0003 -0.1558  0.9878
              Bcc     0.0061     3.234     1.154     1.079  1.0000 -0.0007  0.0002
 

 ---------------------------------------------------------------------------------

 No NMR shielding tensors so no spin-rotation constants.
 Leave Link  601 at Thu Sep  5 23:06:34 2019, MaxMem=  2684354560 cpu:         3.3
 (Enter /soft/gaussian/09-e.01/g09/l701.exe)
 Compute integral first derivatives.
 ... and contract with generalized density number  0.
 Leave Link  701 at Thu Sep  5 23:06:35 2019, MaxMem=  2684354560 cpu:         1.4
 (Enter /soft/gaussian/09-e.01/g09/l702.exe)
 L702 exits ... SP integral derivatives will be done elsewhere.
 Leave Link  702 at Thu Sep  5 23:06:35 2019, MaxMem=  2684354560 cpu:         0.2
 (Enter /soft/gaussian/09-e.01/g09/l703.exe)
 Compute integral first derivatives, UseDBF=F ICtDFT=           0.
 Integral derivatives from FoFJK, PRISM(SPDF).
 Calling FoFJK, ICntrl=      2127 FMM=F ISym2X=0 I1Cent= 0 IOpClX= 1 NMat=1 NMatS=1 NMatT=0.
 FoFJK:  IHMeth= 1 ICntrl=    2127 DoSepK=F KAlg= 0 I1Cent=   0 FoldK=F
 IRaf=         0 NMat=   1 IRICut=       1 DoRegI=T DoRafI=F ISym2E= 0.
 FoFCou: FMM=F IPFlag=           0 FMFlag=      100000 FMFlg1=         800
         NFxFlg=           0 DoJE=F BraDBF=F KetDBF=F FulRan=T
         wScrn=  0.000000 ICntrl=    2127 IOpCl=  1 I1Cent=           0 NGrid=           0
         NMat0=    1 NMatS0=      1 NMatT0=    0 NMatD0=    1 NMtDS0=    0 NMtDT0=    0
 Symmetry not used in FoFCou.
 Leave Link  703 at Thu Sep  5 23:06:35 2019, MaxMem=  2684354560 cpu:         2.1
 (Enter /soft/gaussian/09-e.01/g09/l716.exe)
 Dipole        = 1.29130395D-01-1.88837197D-03-4.54337941D-04
 ***** Axes restored to original set *****
 -------------------------------------------------------------------
 Center     Atomic                   Forces (Hartrees/Bohr)
 Number     Number              X              Y              Z
 -------------------------------------------------------------------
      1        6           0.000056514    0.000395548    0.008812138
      2        1           0.000004223   -0.000084134   -0.009043721
      3        1           0.001557377   -0.000003124    0.000138902
      4        1          -0.001616070   -0.000099392    0.000100658
      5        1          -0.001328304    0.062982412   -0.000098414
      6        1           0.001326259   -0.063191309    0.000090437
 -------------------------------------------------------------------
 Cartesian Forces:  Max     0.063191309 RMS     0.021250036
 -----------------------------------------------------------------------------------------------
                       Internal Coordinate Forces (Hartree/Bohr or radian)
  Cent   Atom   N1       Length/X         N2         Alpha/Y        N3         Beta/Z          J
 -----------------------------------------------------------------------------------------------
      1  C 
      2  H        1  -0.009044(     1)
      3  H        1   0.001276(     2)      2  -0.001847(     7)
      4  H        1   0.001348(     3)      2  -0.001843(     8)      3   0.000034(    12)     0
      5  H        1  -0.000209(     4)      2   0.000055(     9)      3  -0.000040(    13)     0
         X        5   0.000000(     5)      1  -0.000009(    10)      2   0.000000(    14)     0
      6  H        5  -0.063205(     6)      6  -0.000009(    11)      1   0.000003(    15)     0
 -----------------------------------------------------------------------------------------------
 Internal  Forces:  Max     0.063205290 RMS     0.016506561
 Force constants in Cartesian coordinates: 
                1             2             3             4             5 
      1  0.721289D+00
      2  0.188471D-01  0.227462D+00
      3 -0.814949D-04  0.111325D-01  0.710977D+00
      4 -0.112624D+00 -0.204810D-02  0.268543D-03  0.745455D-01
      5 -0.204857D-02 -0.690235D-01 -0.121845D-01  0.142664D-02  0.478504D-01
      6  0.000000D+00  0.000000D+00 -0.341509D+00  0.000000D+00  0.000000D+00
      7 -0.296369D+00 -0.116742D-02  0.105988D+00  0.190656D-01 -0.187752D-03
      8 -0.118373D-01 -0.706811D-01  0.421911D-02 -0.374657D-03  0.104986D-01
      9  0.106853D+00 -0.200394D-02 -0.176683D+00  0.327273D-01 -0.322288D-03
     10 -0.296083D+00 -0.156267D-01 -0.106035D+00  0.189819D-01  0.811144D-03
     11 -0.496690D-02 -0.712851D-01 -0.316661D-02  0.997528D-03  0.105873D-01
     12 -0.106624D+00 -0.944511D-02 -0.176832D+00 -0.326180D-01 -0.272158D-02
     13 -0.351051D-01 -0.473333D-03 -0.139028D-03  0.305182D-04 -0.146578D-05
     14 -0.391392D-03 -0.164823D-01 -0.290705D-04 -0.140793D-05  0.872221D-04
     15 -0.145380D-03  0.208336D-03 -0.348540D-01 -0.377794D-03  0.152284D-01
     16  0.188917D-01  0.468495D-03  0.000000D+00  0.000000D+00  0.000000D+00
     17  0.397008D-03  0.100093D-04  0.285907D-04  0.000000D+00  0.000000D+00
     18 -0.235088D-05  0.108246D-03  0.189013D-01  0.000000D+00  0.000000D+00
                6             7             8             9            10 
      6  0.341509D+00
      7  0.000000D+00  0.287151D+00
      8  0.000000D+00  0.869785D-03  0.491692D-01
      9  0.000000D+00 -0.122676D+00  0.149304D-02  0.148037D+00
     10  0.000000D+00 -0.973837D-02 -0.199308D-02 -0.167165D-01  0.286052D+00
     11  0.000000D+00  0.487637D-03  0.107271D-01  0.837058D-03  0.167866D-01
     12  0.000000D+00  0.166084D-01  0.206098D-02  0.285093D-01  0.122308D+00
     13  0.000000D+00 -0.109344D-03  0.133352D-01 -0.187695D-03  0.788363D-03
     14  0.000000D+00 -0.225278D-05  0.286163D-03 -0.386704D-05  0.220933D-04
     15  0.000000D+00  0.800807D-04 -0.777313D-02  0.137463D-03  0.443720D-03
     16  0.000000D+00  0.000000D+00  0.000000D+00  0.000000D+00  0.000000D+00
     17  0.000000D+00  0.000000D+00  0.000000D+00  0.000000D+00  0.000000D+00
     18  0.000000D+00  0.000000D+00  0.000000D+00  0.000000D+00  0.000000D+00
               11            12            13            14            15 
     11  0.503451D-01
     12  0.100964D-01  0.148105D+00
     13 -0.133049D-01  0.325781D-03  0.110849D+00
     14 -0.374454D-03  0.933060D-05 -0.315863D-02  0.264314D+00
     15 -0.776682D-02  0.218410D-03  0.483252D-05 -0.156226D-03  0.110878D+00
     16  0.000000D+00  0.000000D+00 -0.764536D-01  0.353159D-02 -0.545917D-05
     17  0.000000D+00  0.000000D+00  0.360308D-02 -0.247831D+00  0.259489D-03
     18  0.000000D+00  0.000000D+00 -0.389000D-05  0.179833D-03 -0.763796D-01
               16            17            18 
     16  0.575619D-01
     17 -0.400009D-02  0.247821D+00
     18  0.624089D-05 -0.288079D-03  0.574783D-01
 Force constants in internal coordinates: 
                1             2             3             4             5 
      1  0.341509D+00
      2  0.000000D+00  0.358617D+00
      3  0.000000D+00  0.000000D+00  0.358738D+00
      4  0.000000D+00  0.000000D+00  0.000000D+00  0.164740D-01
      5  0.000000D+00  0.000000D+00  0.000000D+00  0.000000D+00  0.000000D+00
      6  0.000000D+00  0.000000D+00  0.000000D+00  0.000000D+00  0.000000D+00
      7  0.000000D+00  0.000000D+00  0.000000D+00  0.000000D+00  0.000000D+00
      8  0.000000D+00  0.000000D+00  0.000000D+00  0.000000D+00  0.000000D+00
      9  0.000000D+00  0.000000D+00  0.000000D+00  0.000000D+00  0.000000D+00
     10  0.000000D+00  0.000000D+00  0.000000D+00  0.000000D+00  0.000000D+00
     11  0.000000D+00  0.000000D+00  0.000000D+00  0.000000D+00  0.000000D+00
     12  0.000000D+00  0.000000D+00  0.000000D+00  0.000000D+00  0.000000D+00
     13  0.000000D+00  0.000000D+00  0.000000D+00  0.000000D+00  0.000000D+00
     14  0.000000D+00  0.000000D+00  0.000000D+00  0.000000D+00  0.000000D+00
     15  0.000000D+00  0.000000D+00  0.000000D+00  0.000000D+00  0.000000D+00
                6             7             8             9            10 
      6  0.247906D+00
      7  0.000000D+00  0.319587D+00
      8  0.000000D+00  0.159364D+00  0.319679D+00
      9  0.000000D+00  0.164900D-02  0.261986D-02  0.241472D+00
     10  0.000000D+00  0.000000D+00  0.000000D+00  0.124803D-05  0.159998D+00
     11  0.000000D+00  0.000000D+00  0.000000D+00  0.124806D-05  0.159999D+00
     12  0.000000D+00 -0.860166D-02 -0.457640D-02  0.696583D-01  0.000000D+00
     13  0.000000D+00  0.225196D-02 -0.390923D-02 -0.404177D-04 -0.230245D-05
     14  0.000000D+00  0.000000D+00  0.000000D+00  0.000000D+00 -0.605124D-03
     15  0.000000D+00  0.000000D+00  0.000000D+00  0.113518D-05 -0.307065D-05
               11            12            13            14            15 
     11  0.160000D+00
     12  0.000000D+00  0.153148D+00
     13 -0.230250D-05 -0.119388D+00  0.239057D+00
     14 -0.605139D-03  0.000000D+00  0.000000D+00  0.513121D-05
     15  0.000000D+00  0.000000D+00 -0.229109D-05 -0.674383D-03  0.159998D+00
 Leave Link  716 at Thu Sep  5 23:06:35 2019, MaxMem=  2684354560 cpu:         0.2
 (Enter /soft/gaussian/09-e.01/g09/l103.exe)

 GradGradGradGradGradGradGradGradGradGradGradGradGradGradGradGradGradGrad
 Berny optimization.
 Search for a local minimum.
 Step number   1 out of a maximum of   25
 All quantities printed in internal units (Hartrees-Bohrs-Radians)
 Second derivative matrix not updated -- first step.
 The second derivative matrix:
                          R1        R2        A2        R3        A3
           R1           0.34151
           R2           0.00000   0.35862
           A2           0.00000  -0.00000   0.31959
           R3          -0.00000  -0.00000  -0.00000   0.35874
           A3          -0.00000  -0.00000   0.15936  -0.00000   0.31968
           D3          -0.00000  -0.00000  -0.00860   0.00000  -0.00458
           R4           0.00000   0.00000   0.00000  -0.00000   0.00000
           A4           0.00000  -0.00000   0.00165  -0.00000   0.00262
           D4          -0.00000  -0.00000   0.00225   0.00000  -0.00391
           A6           0.00000  -0.00000  -0.00000  -0.00000   0.00000
           D6          -0.00000  -0.00000   0.00000  -0.00000  -0.00000
           A5           0.00000  -0.00000  -0.00000  -0.00000  -0.00000
           D5           0.00000   0.00000  -0.00000  -0.00000   0.00000
           R5          -0.00000  -0.00000  -0.00000  -0.00000  -0.00000
           R6          -0.00000   0.00000  -0.00000   0.00000  -0.00000
                          D3        R4        A4        D4        A6
           D3           0.15315
           R4           0.00000   0.01647
           A4           0.06966  -0.00000   0.24147
           D4          -0.11939  -0.00000  -0.00004   0.23906
           A6           0.00000   0.00000   0.00000  -0.00000   0.16000
           D6          -0.00000   0.00000   0.00000  -0.00000  -0.00000
           A5           0.00000   0.00000   0.00000  -0.00000   0.16000
           D5          -0.00000  -0.00000  -0.00000   0.00000  -0.00061
           R5          -0.00000  -0.00000  -0.00000   0.00000  -0.00000
           R6           0.00000   0.00000  -0.00000  -0.00000   0.00000
                          D6        A5        D5        R5        R6
           D6           0.16000
           A5          -0.00000   0.16000
           D5          -0.00067  -0.00061   0.00001
           R5          -0.00000  -0.00000   0.00000   0.00000
           R6           0.00000   0.00000  -0.00000  -0.00000   0.24791
 ITU=  0
     Eigenvalues ---    0.01647   0.05139   0.16000   0.16000   0.16010
     Eigenvalues ---    0.24083   0.34133   0.34151   0.35862   0.35874
     Eigenvalues ---    0.479291000.000001000.000001000.000001000.00000
 RFO step:  Lambda=-2.65787341D-04 EMin= 1.64739968D-02
 Linear search not attempted -- first point.
 Variable       Old X    -DE/DX   Delta X   Delta X   Delta X     New X
                                 (Linear)    (Quad)   (Total)
    R1        2.07076  -0.00904   0.00000  -0.02646  -0.02646   2.04430
    R2        2.04298   0.00128   0.00000   0.00355   0.00355   2.04654
    A2        2.09829  -0.00185   0.00000  -0.00387  -0.00387   2.09442
    R3        2.04279   0.00135   0.00000   0.00376   0.00376   2.04655
    A3        2.09834  -0.00184   0.00000  -0.00385  -0.00385   2.09449
    D3        3.06817   0.00003   0.00000  -0.00082  -0.00082   3.06735
    R4        5.07354  -0.00021   0.00000  -0.01247  -0.01247   5.06107
    A4        1.57652   0.00006   0.00000   0.00053   0.00053   1.57706
    D4        4.68759  -0.00004   0.00000  -0.00060  -0.00060   4.68700
    A6        1.57501  -0.00001   0.00000  -0.00005  -0.00005   1.57496
    D6        3.13781   0.00000   0.00000   0.00002   0.00002   3.13783
    A5        1.57080  -0.00001   0.00000   0.00000   0.00000   1.57080
    D5        3.14159   0.00000   0.00000   0.00000   0.00000   3.14159
    R5        1.88973   0.00000   0.00000   0.00000   0.00000   1.88973
    R6        1.66844  -0.06321   0.00000   0.00000   0.00000   1.66844
         Item               Value     Threshold  Converged?
 Maximum Force            0.009044     0.000450     NO 
 RMS     Force            0.002893     0.000300     NO 
 Maximum Displacement     0.026461     0.001800     NO 
 RMS     Displacement     0.007804     0.001200     NO 
 Predicted change in Energy=-1.330152D-04
 Lowest energy point so far.  Saving SCF results.
 GradGradGradGradGradGradGradGradGradGradGradGradGradGradGradGradGradGrad

 Leave Link  103 at Thu Sep  5 23:06:35 2019, MaxMem=  2684354560 cpu:         0.2
 (Enter /soft/gaussian/09-e.01/g09/l202.exe)
 ---------------------------------------------------------------------------------------------------
                            Z-MATRIX (ANGSTROMS AND DEGREES)
   CD    Cent   Atom    N1       Length/X        N2       Alpha/Y        N3        Beta/Z          J
 ---------------------------------------------------------------------------------------------------
      1      1  C 
      2      2  H        1   1.081797(     1)
      3      3  H        1   1.082981(     2)      2  120.001(     7)
      4      4  H        1   1.082987(     3)      2  120.005(     8)      3  175.746(    12)      0
      5      5  H        1   2.678202(     4)      2   90.359(     9)      3  268.545(    13)      0
      6         X        5   1.000000(     5)      1   90.000(    10)      2  180.000(    14)      0
      7      6  H        5   0.882900(     6)      6   90.238(    11)      1  179.784(    15)      0
 ---------------------------------------------------------------------------------------------------
                         Z-Matrix orientation:                         
 ---------------------------------------------------------------------
 Center     Atomic      Atomic             Coordinates (Angstroms)
 Number     Number       Type             X           Y           Z
 ---------------------------------------------------------------------
      1          6           0        0.000000    0.000000    0.000000
      2          1           0        0.000000    0.000000    1.081797
      3          1           0        0.937876    0.000000   -0.541513
      4          1           0       -0.935262   -0.069563   -0.541578
      5          1           0       -0.067997    2.677286   -0.016765
      6         -1           0       -0.067838    2.671028   -1.016745
      7          1           0       -0.087091    3.559977   -0.018618
 ---------------------------------------------------------------------
                    Distance matrix (angstroms):
                    1          2          3          4          5
     1  C    0.000000
     2  H    1.081797   0.000000
     3  H    1.082981   1.874766   0.000000
     4  H    1.082987   1.874808   1.874430   0.000000
     5  H    2.678202   2.894706   2.907749   2.927927   0.000000
     6  X    2.858805   3.397480   2.893389   2.913597   1.000000
     7  H    3.561091   3.727189   3.741312   3.763834   0.882900
                    6          7
     6  X    0.000000
     7  H    1.336735   0.000000
 Stoichiometry    CH5(2)
 Framework group  C1[X(CH5)]
 Deg. of freedom    12
 Full point group                 C1      NOp   1
 RotChk:  IX=0 Diff= 5.29D-01
 Largest Abelian subgroup         C1      NOp   1
 Largest concise Abelian subgroup C1      NOp   1
                         Standard orientation:                         
 ---------------------------------------------------------------------
 Center     Atomic      Atomic             Coordinates (Angstroms)
 Number     Number       Type             X           Y           Z
 ---------------------------------------------------------------------
      1          6           0        0.560879    0.000920   -0.001207
      2          1           0        0.564791    1.003400   -0.407784
      3          1           0        0.580808   -0.853355   -0.666538
      4          1           0        0.606639   -0.149089    1.070364
      5          1           0       -2.117307   -0.003574    0.006552
      6          1           0       -3.000205   -0.002901    0.004649
 ---------------------------------------------------------------------
 Rotational constants (GHZ):    142.7182845     25.8997583     25.8984675
 Leave Link  202 at Thu Sep  5 23:06:35 2019, MaxMem=  2684354560 cpu:         0.1
 (Enter /soft/gaussian/09-e.01/g09/l301.exe)
 Standard basis: 6-31G(d) (6D, 7F)
 Ernie: Thresh=  0.10000D-02 Tol=  0.10000D-05 Strict=F.
 There are    25 symmetry adapted cartesian basis functions of A   symmetry.
 There are    25 symmetry adapted basis functions of A   symmetry.
    25 basis functions,    48 primitive gaussians,    25 cartesian basis functions
     6 alpha electrons        5 beta electrons
       nuclear repulsion energy        13.2913950127 Hartrees.
 IExCor=  402 DFT=T Ex+Corr=B3LYP ExCW=0 ScaHFX=  0.200000
 ScaDFX=  0.800000  0.720000  1.000000  0.810000 ScalE2=  1.000000  1.000000
 IRadAn=      5 IRanWt=     -1 IRanGd=            0 ICorTp=0 IEmpDi=  4
 NAtoms=    6 NActive=    6 NUniq=    6 SFac= 1.00D+00 NAtFMM=   60 NAOKFM=F Big=F
 Integral buffers will be    131072 words long.
 Raffenetti 2 integral format.
 Two-electron integral symmetry is turned on.
 Leave Link  301 at Thu Sep  5 23:06:35 2019, MaxMem=  2684354560 cpu:         0.5
 (Enter /soft/gaussian/09-e.01/g09/l302.exe)
 NPDir=0 NMtPBC=     1 NCelOv=     1 NCel=       1 NClECP=     1 NCelD=      1
         NCelK=      1 NCelE2=     1 NClLst=     1 CellRange=     0.0.
 One-electron integrals computed using PRISM.
 NBasis=    25 RedAO= T EigKep=  2.66D-02  NBF=    25
 NBsUse=    25 1.00D-06 EigRej= -1.00D+00 NBFU=    25
 Precomputing XC quadrature grid using
 IXCGrd= 4 IRadAn=           5 IRanWt=          -1 IRanGd=           0 AccXCQ= 0.00D+00.
 Generated NRdTot=       0 NPtTot=           0 NUsed=           0 NTot=          32
 NSgBfM=    25    25    25    25    25 MxSgAt=     6 MxSgA2=     6.
 Leave Link  302 at Thu Sep  5 23:06:35 2019, MaxMem=  2684354560 cpu:         1.6
 (Enter /soft/gaussian/09-e.01/g09/l303.exe)
 DipDrv:  MaxL=1.
 Leave Link  303 at Thu Sep  5 23:06:35 2019, MaxMem=  2684354560 cpu:         0.2
 (Enter /soft/gaussian/09-e.01/g09/l401.exe)
 Initial guess from the checkpoint file:  "/blues/gpfs/home/elliott/Packages/PACC/moldriver/rcdriver/tmprundir/RXN/CH3.H2/MDUSDFXREFXETQ/0_0/2_1/UHFFFAOYSA-N/CH4.H/HXBDELFRWIQQII/0_0/1_2/UHFFFAOYSA-N/2/ezvlpJU/SCANS/R6/01/RUN/OPTI/A03/Gau-155345.chk"
 B after Tr=    -0.000000    0.000000   -0.000000
         Rot=    0.982351    0.187047    0.000007   -0.000018 Ang=  21.56 deg.
 Guess basis will be translated and rotated to current coordinates.
 JPrj=2 DoOrth=T DoCkMO=T.
 Initial guess <Sx>= 0.0000 <Sy>= 0.0000 <Sz>= 0.5000 <S**2>= 0.7538 S= 0.5019
 Generating alternative initial guess.
 ExpMin= 1.61D-01 ExpMax= 3.05D+03 ExpMxC= 4.57D+02 IAcc=2 IRadAn=         4 AccDes= 0.00D+00
 Harris functional with IExCor=  402 and IRadAn=       4 diagonalized for initial guess.
 HarFok:  IExCor=  402 AccDes= 0.00D+00 IRadAn=         4 IDoV= 1 UseB2=F ITyADJ=14
 ICtDFT=  3500011 ScaDFX=  1.000000  1.000000  1.000000  1.000000
 FoFCou: FMM=F IPFlag=           0 FMFlag=      100000 FMFlg1=           0
         NFxFlg=           0 DoJE=T BraDBF=F KetDBF=T FulRan=T
         wScrn=  0.000000 ICntrl=     500 IOpCl=  0 I1Cent=   200000004 NGrid=           0
         NMat0=    1 NMatS0=      1 NMatT0=    0 NMatD0=    1 NMtDS0=    0 NMtDT0=    0
 Petite list used in FoFCou.
 Harris En= -40.9980737771710    
 Leave Link  401 at Thu Sep  5 23:06:35 2019, MaxMem=  2684354560 cpu:         2.3
 (Enter /soft/gaussian/09-e.01/g09/l502.exe)
 UHF open shell SCF:
 Using DIIS extrapolation, IDIIS=  1040.
 Integral symmetry usage will be decided dynamically.
 Keep R1 and R2 ints in memory in canonical form, NReq=976418.
 IVT=        8268 IEndB=        8268 NGot=  2684354560 MDV=  2684240343
 LenX=  2684240343 LenY=  2684239277
 Requested convergence on RMS density matrix=1.00D-08 within  64 cycles.
 Requested convergence on MAX density matrix=1.00D-06.
 Requested convergence on             energy=1.00D-06.
 No special actions if energy rises.
 FoFCou: FMM=F IPFlag=           0 FMFlag=           0 FMFlg1=           0
         NFxFlg=           0 DoJE=F BraDBF=F KetDBF=F FulRan=T
         wScrn=  0.000000 ICntrl=     600 IOpCl=  0 I1Cent=           0 NGrid=           0
         NMat0=    1 NMatS0=    325 NMatT0=    0 NMatD0=    1 NMtDS0=    0 NMtDT0=    0
 Symmetry not used in FoFCou.
 Integral accuracy reduced to 1.0D-05 until final iterations.

 Cycle   1  Pass 0  IDiag  1:
 E= -41.0049032538299    
 DIIS: error= 6.73D-04 at cycle   1 NSaved=   1.
 NSaved= 1 IEnMin= 1 EnMin= -41.0049032538299     IErMin= 1 ErrMin= 6.73D-04
 ErrMax= 6.73D-04  0.00D+00 EMaxC= 1.00D-01 BMatC= 7.98D-05 BMatP= 7.98D-05
 IDIUse=3 WtCom= 9.93D-01 WtEn= 6.73D-03
 Coeff-Com:  0.100D+01
 Coeff-En:   0.100D+01
 Coeff:      0.100D+01
 Gap=     2.707 Goal=   None    Shift=    0.000
 Gap=     2.562 Goal=   None    Shift=    0.000
 RMSDP=2.41D-04 MaxDP=1.66D-03              OVMax= 3.51D-03

 Cycle   2  Pass 0  IDiag  1:
 E= -41.0049299414906     Delta-E=       -0.000026687661 Rises=F Damp=F
 DIIS: error= 3.69D-04 at cycle   2 NSaved=   2.
 NSaved= 2 IEnMin= 2 EnMin= -41.0049299414906     IErMin= 2 ErrMin= 3.69D-04
 ErrMax= 3.69D-04  0.00D+00 EMaxC= 1.00D-01 BMatC= 1.26D-05 BMatP= 7.98D-05
 IDIUse=3 WtCom= 9.96D-01 WtEn= 3.69D-03
 Coeff-Com:  0.236D+00 0.764D+00
 Coeff-En:   0.000D+00 0.100D+01
 Coeff:      0.236D+00 0.764D+00
 Gap=     0.305 Goal=   None    Shift=    0.000
 Gap=     0.339 Goal=   None    Shift=    0.000
 RMSDP=8.99D-05 MaxDP=1.09D-03 DE=-2.67D-05 OVMax= 1.04D-03

 Cycle   3  Pass 0  IDiag  1:
 E= -41.0049325597512     Delta-E=       -0.000002618261 Rises=F Damp=F
 DIIS: error= 2.15D-04 at cycle   3 NSaved=   3.
 NSaved= 3 IEnMin= 3 EnMin= -41.0049325597512     IErMin= 3 ErrMin= 2.15D-04
 ErrMax= 2.15D-04  0.00D+00 EMaxC= 1.00D-01 BMatC= 2.68D-06 BMatP= 1.26D-05
 IDIUse=3 WtCom= 9.98D-01 WtEn= 2.15D-03
 Coeff-Com:  0.374D-01 0.323D+00 0.640D+00
 Coeff-En:   0.000D+00 0.761D-01 0.924D+00
 Coeff:      0.373D-01 0.322D+00 0.641D+00
 Gap=     0.305 Goal=   None    Shift=    0.000
 Gap=     0.338 Goal=   None    Shift=    0.000
 RMSDP=3.15D-05 MaxDP=3.41D-04 DE=-2.62D-06 OVMax= 3.23D-04

 Cycle   4  Pass 0  IDiag  1:
 E= -41.0049332552346     Delta-E=       -0.000000695483 Rises=F Damp=F
 DIIS: error= 2.49D-05 at cycle   4 NSaved=   4.
 NSaved= 4 IEnMin= 4 EnMin= -41.0049332552346     IErMin= 4 ErrMin= 2.49D-05
 ErrMax= 2.49D-05  0.00D+00 EMaxC= 1.00D-01 BMatC= 5.42D-08 BMatP= 2.68D-06
 IDIUse=1 WtCom= 1.00D+00 WtEn= 0.00D+00
 Coeff-Com: -0.535D-02 0.292D-01 0.157D+00 0.819D+00
 Coeff:     -0.535D-02 0.292D-01 0.157D+00 0.819D+00
 Gap=     0.305 Goal=   None    Shift=    0.000
 Gap=     0.338 Goal=   None    Shift=    0.000
 RMSDP=5.75D-06 MaxDP=6.51D-05 DE=-6.95D-07 OVMax= 6.43D-05

 Initial convergence to 1.0D-05 achieved.  Increase integral accuracy.
 Cycle   5  Pass 1  IDiag  1:
 E= -41.0049331199165     Delta-E=        0.000000135318 Rises=F Damp=F
 DIIS: error= 2.40D-06 at cycle   1 NSaved=   1.
 NSaved= 1 IEnMin= 1 EnMin= -41.0049331199165     IErMin= 1 ErrMin= 2.40D-06
 ErrMax= 2.40D-06  0.00D+00 EMaxC= 1.00D-01 BMatC= 5.99D-10 BMatP= 5.99D-10
 IDIUse=1 WtCom= 1.00D+00 WtEn= 0.00D+00
 Coeff-Com:  0.100D+01
 Coeff:      0.100D+01
 Gap=     0.305 Goal=   None    Shift=    0.000
 Gap=     0.338 Goal=   None    Shift=    0.000
 RMSDP=5.75D-06 MaxDP=6.51D-05 DE= 1.35D-07 OVMax= 1.24D-05

 Cycle   6  Pass 1  IDiag  1:
 E= -41.0049331201957     Delta-E=       -0.000000000279 Rises=F Damp=F
 DIIS: error= 1.48D-06 at cycle   2 NSaved=   2.
 NSaved= 2 IEnMin= 2 EnMin= -41.0049331201957     IErMin= 2 ErrMin= 1.48D-06
 ErrMax= 1.48D-06  0.00D+00 EMaxC= 1.00D-01 BMatC= 1.58D-10 BMatP= 5.99D-10
 IDIUse=1 WtCom= 1.00D+00 WtEn= 0.00D+00
 Coeff-Com:  0.259D+00 0.741D+00
 Coeff:      0.259D+00 0.741D+00
 Gap=     0.305 Goal=   None    Shift=    0.000
 Gap=     0.338 Goal=   None    Shift=    0.000
 RMSDP=3.55D-07 MaxDP=4.35D-06 DE=-2.79D-10 OVMax= 4.29D-06

 Cycle   7  Pass 1  IDiag  1:
 E= -41.0049331202522     Delta-E=       -0.000000000057 Rises=F Damp=F
 DIIS: error= 8.45D-07 at cycle   3 NSaved=   3.
 NSaved= 3 IEnMin= 3 EnMin= -41.0049331202522     IErMin= 3 ErrMin= 8.45D-07
 ErrMax= 8.45D-07  0.00D+00 EMaxC= 1.00D-01 BMatC= 3.72D-11 BMatP= 1.58D-10
 IDIUse=1 WtCom= 1.00D+00 WtEn= 0.00D+00
 Coeff-Com: -0.786D-01 0.222D+00 0.857D+00
 Coeff:     -0.786D-01 0.222D+00 0.857D+00
 Gap=     0.305 Goal=   None    Shift=    0.000
 Gap=     0.338 Goal=   None    Shift=    0.000
 RMSDP=1.79D-07 MaxDP=1.51D-06 DE=-5.65D-11 OVMax= 2.61D-06

 Cycle   8  Pass 1  IDiag  1:
 E= -41.0049331202706     Delta-E=       -0.000000000018 Rises=F Damp=F
 DIIS: error= 3.39D-07 at cycle   4 NSaved=   4.
 NSaved= 4 IEnMin= 4 EnMin= -41.0049331202706     IErMin= 4 ErrMin= 3.39D-07
 ErrMax= 3.39D-07  0.00D+00 EMaxC= 1.00D-01 BMatC= 4.98D-12 BMatP= 3.72D-11
 IDIUse=1 WtCom= 1.00D+00 WtEn= 0.00D+00
 Coeff-Com: -0.734D-01-0.941D-01 0.187D+00 0.981D+00
 Coeff:     -0.734D-01-0.941D-01 0.187D+00 0.981D+00
 Gap=     0.305 Goal=   None    Shift=    0.000
 Gap=     0.338 Goal=   None    Shift=    0.000
 RMSDP=1.01D-07 MaxDP=9.54D-07 DE=-1.83D-11 OVMax= 1.68D-06

 Cycle   9  Pass 1  IDiag  1:
 E= -41.0049331202744     Delta-E=       -0.000000000004 Rises=F Damp=F
 DIIS: error= 1.22D-07 at cycle   5 NSaved=   5.
 NSaved= 5 IEnMin= 5 EnMin= -41.0049331202744     IErMin= 5 ErrMin= 1.22D-07
 ErrMax= 1.22D-07  0.00D+00 EMaxC= 1.00D-01 BMatC= 2.79D-13 BMatP= 4.98D-12
 IDIUse=1 WtCom= 1.00D+00 WtEn= 0.00D+00
 Coeff-Com:  0.186D-01-0.463D-02-0.117D+00-0.146D+00 0.125D+01
 Coeff:      0.186D-01-0.463D-02-0.117D+00-0.146D+00 0.125D+01
 Gap=     0.305 Goal=   None    Shift=    0.000
 Gap=     0.338 Goal=   None    Shift=    0.000
 RMSDP=3.26D-08 MaxDP=3.56D-07 DE=-3.87D-12 OVMax= 6.67D-07

 Cycle  10  Pass 1  IDiag  1:
 E= -41.0049331202748     Delta-E=       -0.000000000000 Rises=F Damp=F
 DIIS: error= 3.03D-08 at cycle   6 NSaved=   6.
 NSaved= 6 IEnMin= 6 EnMin= -41.0049331202748     IErMin= 6 ErrMin= 3.03D-08
 ErrMax= 3.03D-08  0.00D+00 EMaxC= 1.00D-01 BMatC= 1.72D-14 BMatP= 2.79D-13
 IDIUse=1 WtCom= 1.00D+00 WtEn= 0.00D+00
 Coeff-Com:  0.159D-02 0.424D-02 0.887D-02-0.360D-01-0.174D+00 0.120D+01
 Coeff:      0.159D-02 0.424D-02 0.887D-02-0.360D-01-0.174D+00 0.120D+01
 Gap=     0.305 Goal=   None    Shift=    0.000
 Gap=     0.338 Goal=   None    Shift=    0.000
 RMSDP=7.13D-09 MaxDP=8.45D-08 DE=-3.84D-13 OVMax= 1.61D-07

 SCF Done:  E(UB3LYP) =  -41.0049331203     A.U. after   10 cycles
            NFock= 10  Conv=0.71D-08     -V/T= 2.0131
 <Sx>= 0.0000 <Sy>= 0.0000 <Sz>= 0.5000 <S**2>= 0.7537 S= 0.5019
 <L.S>= 0.000000000000E+00
 KE= 4.047273800876D+01 PE=-1.204847496711D+02 EE= 2.571568352934D+01
 Annihilation of the first spin contaminant:
 S**2 before annihilation     0.7537,   after     0.7500
 Leave Link  502 at Thu Sep  5 23:06:36 2019, MaxMem=  2684354560 cpu:         6.1
 (Enter /soft/gaussian/09-e.01/g09/l508.exe)
 QCSCF skips out because SCF is already converged.
 Leave Link  508 at Thu Sep  5 23:06:36 2019, MaxMem=  2684354560 cpu:         0.0
 (Enter /soft/gaussian/09-e.01/g09/l701.exe)
 Compute integral first derivatives.
 ... and contract with generalized density number  0.
 Leave Link  701 at Thu Sep  5 23:06:36 2019, MaxMem=  2684354560 cpu:         1.4
 (Enter /soft/gaussian/09-e.01/g09/l702.exe)
 L702 exits ... SP integral derivatives will be done elsewhere.
 Leave Link  702 at Thu Sep  5 23:06:36 2019, MaxMem=  2684354560 cpu:         0.1
 (Enter /soft/gaussian/09-e.01/g09/l703.exe)
 Compute integral first derivatives, UseDBF=F ICtDFT=           0.
 Integral derivatives from FoFJK, PRISM(SPDF).
 Calling FoFJK, ICntrl=      2127 FMM=F ISym2X=0 I1Cent= 0 IOpClX= 1 NMat=1 NMatS=1 NMatT=0.
 FoFJK:  IHMeth= 1 ICntrl=    2127 DoSepK=F KAlg= 0 I1Cent=   0 FoldK=F
 IRaf=         0 NMat=   1 IRICut=       1 DoRegI=T DoRafI=F ISym2E= 0.
 FoFCou: FMM=F IPFlag=           0 FMFlag=      100000 FMFlg1=         800
         NFxFlg=           0 DoJE=F BraDBF=F KetDBF=F FulRan=T
         wScrn=  0.000000 ICntrl=    2127 IOpCl=  1 I1Cent=           0 NGrid=           0
         NMat0=    1 NMatS0=      1 NMatT0=    0 NMatD0=    1 NMtDS0=    0 NMtDT0=    0
 Symmetry not used in FoFCou.
 Leave Link  703 at Thu Sep  5 23:06:37 2019, MaxMem=  2684354560 cpu:         2.3
 (Enter /soft/gaussian/09-e.01/g09/l716.exe)
 Dipole        = 1.30010590D-01 4.23018263D-04-6.93894287D-04
 ***** Axes restored to original set *****
 -------------------------------------------------------------------
 Center     Atomic                   Forces (Hartrees/Bohr)
 Number     Number              X              Y              Z
 -------------------------------------------------------------------
      1        6          -0.000001697    0.000292876   -0.000978403
      2        1           0.000000445   -0.000054806    0.000682575
      3        1          -0.000046349   -0.000032295    0.000151226
      4        1           0.000049759   -0.000006144    0.000153468
      5        1          -0.001366479    0.062953442   -0.000140594
      6        1           0.001364320   -0.063153073    0.000131728
 -------------------------------------------------------------------
 Cartesian Forces:  Max     0.063153073 RMS     0.021024822
 -----------------------------------------------------------------------------------------------
                       Internal Coordinate Forces (Hartree/Bohr or radian)
  Cent   Atom   N1       Length/X         N2         Alpha/Y        N3         Beta/Z          J
 -----------------------------------------------------------------------------------------------
      1  C 
      2  H        1   0.000683(     1)
      3  H        1  -0.000116(     2)      2  -0.000221(     7)
      4  H        1  -0.000119(     3)      2  -0.000222(     8)      3  -0.000017(    12)     0
      5  H        1  -0.000199(     4)      2   0.000053(     9)      3  -0.000040(    13)     0
         X        5   0.000000(     5)      1  -0.000001(    10)      2  -0.000000(    14)     0
      6  H        5  -0.063168(     6)      6  -0.000001(    11)      1   0.000003(    15)     0
 -----------------------------------------------------------------------------------------------
 Internal  Forces:  Max     0.063167946 RMS     0.016311193
 Leave Link  716 at Thu Sep  5 23:06:37 2019, MaxMem=  2684354560 cpu:         0.4
 (Enter /soft/gaussian/09-e.01/g09/l103.exe)

 GradGradGradGradGradGradGradGradGradGradGradGradGradGradGradGradGradGrad
 Berny optimization.
 Search for a local minimum.
 Step number   2 out of a maximum of   25
 All quantities printed in internal units (Hartrees-Bohrs-Radians)
 Update second derivatives using D2CorN and points    1    2
 DE= -1.27D-04 DEPred=-1.33D-04 R= 9.56D-01
 TightC=F SS=  1.41D+00  RLast= 3.02D-02 DXNew= 5.0454D-01 9.0676D-02
 Trust test= 9.56D-01 RLast= 3.02D-02 DXMaxT set to 3.00D-01
 The second derivative matrix:
                          R1        R2        A2        R3        A3
           R1           0.36148
           R2          -0.00303   0.35907
           A2          -0.00172   0.00018   0.31866
           R3          -0.00316   0.00047   0.00020   0.35923
           A3          -0.00174   0.00018   0.15843   0.00020   0.31875
           D3           0.00006  -0.00002  -0.00874  -0.00002  -0.00471
           R4           0.00187  -0.00041  -0.00191  -0.00042  -0.00192
           A4           0.00056  -0.00007   0.00182  -0.00007   0.00279
           D4          -0.00034   0.00004   0.00210   0.00004  -0.00406
           A6           0.00000  -0.00000  -0.00001  -0.00000  -0.00001
           D6           0.00004  -0.00000   0.00001  -0.00000   0.00001
           A5          -0.00002   0.00000  -0.00000   0.00000  -0.00000
           D5          -0.00000   0.00000  -0.00000   0.00000  -0.00000
           R5          -0.00000   0.00000  -0.00000   0.00000  -0.00000
           R6           0.00054  -0.00007   0.00008  -0.00008   0.00008
                          D3        R4        A4        D4        A6
           D3           0.15313
           R4          -0.00020   0.01380
           A4           0.06969   0.00042   0.24144
           D4          -0.11941  -0.00033  -0.00001   0.23903
           A6          -0.00000  -0.00002   0.00000  -0.00000   0.16000
           D6           0.00000   0.00002  -0.00000  -0.00000  -0.00000
           A5          -0.00000  -0.00001   0.00000  -0.00000   0.16000
           D5          -0.00000  -0.00000  -0.00000   0.00000  -0.00061
           R5          -0.00000  -0.00000  -0.00000  -0.00000  -0.00000
           R6           0.00002   0.00025  -0.00001   0.00001   0.00000
                          D6        A5        D5        R5        R6
           D6           0.16000
           A5          -0.00000   0.16000
           D5          -0.00067  -0.00061   0.00001
           R5          -0.00000  -0.00000   0.00000   0.00000
           R6          -0.00000   0.00000  -0.00000  -0.00000   0.24791
 ITU=  1  0
     Eigenvalues ---    0.01376   0.05132   0.16000   0.16000   0.16010
     Eigenvalues ---    0.24083   0.34132   0.35607   0.35868   0.36501
     Eigenvalues ---    0.477511000.000001000.000001000.000001000.00000
 RFO step:  Lambda=-3.77163292D-06 EMin= 1.37629429D-02
 Quartic linear search produced a step of -0.05058.
 Variable       Old X    -DE/DX   Delta X   Delta X   Delta X     New X
                                 (Linear)    (Quad)   (Total)
    R1        2.04430   0.00068   0.00134   0.00056   0.00190   2.04620
    R2        2.04654  -0.00012  -0.00018  -0.00013  -0.00031   2.04622
    A2        2.09442  -0.00022   0.00020  -0.00071  -0.00052   2.09390
    R3        2.04655  -0.00012  -0.00019  -0.00013  -0.00032   2.04623
    A3        2.09449  -0.00022   0.00019  -0.00072  -0.00053   2.09396
    D3        3.06735  -0.00002   0.00004  -0.00094  -0.00090   3.06645
    R4        5.06107  -0.00020   0.00063  -0.01528  -0.01465   5.04641
    A4        1.57706   0.00005  -0.00003   0.00053   0.00050   1.57756
    D4        4.68700  -0.00004   0.00003  -0.00066  -0.00063   4.68636
    A6        1.57496  -0.00000   0.00000  -0.00001  -0.00001   1.57495
    D6        3.13783   0.00000  -0.00000   0.00002   0.00002   3.13785
    A5        1.57080  -0.00000   0.00000   0.00000   0.00000   1.57080
    D5        3.14159  -0.00000   0.00000   0.00000   0.00000   3.14159
    R5        1.88973   0.00000   0.00000   0.00000   0.00000   1.88973
    R6        1.66844  -0.06317   0.00000   0.00000   0.00000   1.66844
         Item               Value     Threshold  Converged?
 Maximum Force            0.000683     0.000450     NO 
 RMS     Force            0.000240     0.000300     YES
 Maximum Displacement     0.014653     0.001800     NO 
 RMS     Displacement     0.003834     0.001200     NO 
 Predicted change in Energy=-2.345294D-06
 Lowest energy point so far.  Saving SCF results.
 GradGradGradGradGradGradGradGradGradGradGradGradGradGradGradGradGradGrad

 Leave Link  103 at Thu Sep  5 23:06:37 2019, MaxMem=  2684354560 cpu:         0.2
 (Enter /soft/gaussian/09-e.01/g09/l202.exe)
 ---------------------------------------------------------------------------------------------------
                            Z-MATRIX (ANGSTROMS AND DEGREES)
   CD    Cent   Atom    N1       Length/X        N2       Alpha/Y        N3        Beta/Z          J
 ---------------------------------------------------------------------------------------------------
      1      1  C 
      2      2  H        1   1.082801(     1)
      3      3  H        1   1.082816(     2)      2  119.972(     7)
      4      4  H        1   1.082817(     3)      2  119.975(     8)      3  175.695(    12)      0
      5      5  H        1   2.670448(     4)      2   90.387(     9)      3  268.509(    13)      0
      6         X        5   1.000000(     5)      1   90.000(    10)      2  180.000(    14)      0
      7      6  H        5   0.882900(     6)      6   90.238(    11)      1  179.785(    15)      0
 ---------------------------------------------------------------------------------------------------
                         Z-Matrix orientation:                         
 ---------------------------------------------------------------------
 Center     Atomic      Atomic             Coordinates (Angstroms)
 Number     Number       Type             X           Y           Z
 ---------------------------------------------------------------------
      1          6           0        0.000000    0.000000    0.000000
      2          1           0        0.000000    0.000000    1.082801
      3          1           0        0.938011    0.000000   -0.540947
      4          1           0       -0.935336   -0.070415   -0.541000
      5          1           0       -0.069490    2.669482   -0.018059
      6         -1           0       -0.069314    2.662722   -1.018036
      7          1           0       -0.089160    3.552160   -0.020365
 ---------------------------------------------------------------------
                    Distance matrix (angstroms):
                    1          2          3          4          5
     1  C    0.000000
     2  H    1.082801   0.000000
     3  H    1.082816   1.875213   0.000000
     4  H    1.082817   1.875244   1.874671   0.000000
     5  H    2.670448   2.888400   2.900794   2.920649   0.000000
     6  X    2.851542   3.392404   2.886591   2.906475   1.000000
     7  H    3.553337   3.720587   3.734157   3.756345   0.882900
                    6          7
     6  X    0.000000
     7  H    1.336728   0.000000
 Stoichiometry    CH5(2)
 Framework group  C1[X(CH5)]
 Deg. of freedom    12
 Full point group                 C1      NOp   1
 RotChk:  IX=0 Diff= 1.87D-01
 Largest Abelian subgroup         C1      NOp   1
 Largest concise Abelian subgroup C1      NOp   1
                         Standard orientation:                         
 ---------------------------------------------------------------------
 Center     Atomic      Atomic             Coordinates (Angstroms)
 Number     Number       Type             X           Y           Z
 ---------------------------------------------------------------------
      1          6           0        0.559391    0.000829   -0.001003
      2          1           0        0.563961    1.049078   -0.272319
      3          1           0        0.579605   -0.757919   -0.773261
      4          1           0        0.605068   -0.288379    1.041477
      5          1           0       -2.111042   -0.004377    0.005968
      6          1           0       -2.993940   -0.003380    0.004154
 ---------------------------------------------------------------------
 Rotational constants (GHZ):    142.6602124     26.0128573     26.0109992
 Leave Link  202 at Thu Sep  5 23:06:37 2019, MaxMem=  2684354560 cpu:         0.2
 (Enter /soft/gaussian/09-e.01/g09/l301.exe)
 Standard basis: 6-31G(d) (6D, 7F)
 Ernie: Thresh=  0.10000D-02 Tol=  0.10000D-05 Strict=F.
 There are    25 symmetry adapted cartesian basis functions of A   symmetry.
 There are    25 symmetry adapted basis functions of A   symmetry.
    25 basis functions,    48 primitive gaussians,    25 cartesian basis functions
     6 alpha electrons        5 beta electrons
       nuclear repulsion energy        13.2968923614 Hartrees.
 IExCor=  402 DFT=T Ex+Corr=B3LYP ExCW=0 ScaHFX=  0.200000
 ScaDFX=  0.800000  0.720000  1.000000  0.810000 ScalE2=  1.000000  1.000000
 IRadAn=      5 IRanWt=     -1 IRanGd=            0 ICorTp=0 IEmpDi=  4
 NAtoms=    6 NActive=    6 NUniq=    6 SFac= 1.00D+00 NAtFMM=   60 NAOKFM=F Big=F
 Integral buffers will be    131072 words long.
 Raffenetti 2 integral format.
 Two-electron integral symmetry is turned on.
 Leave Link  301 at Thu Sep  5 23:06:37 2019, MaxMem=  2684354560 cpu:         0.4
 (Enter /soft/gaussian/09-e.01/g09/l302.exe)
 NPDir=0 NMtPBC=     1 NCelOv=     1 NCel=       1 NClECP=     1 NCelD=      1
         NCelK=      1 NCelE2=     1 NClLst=     1 CellRange=     0.0.
 One-electron integrals computed using PRISM.
 NBasis=    25 RedAO= T EigKep=  2.66D-02  NBF=    25
 NBsUse=    25 1.00D-06 EigRej= -1.00D+00 NBFU=    25
 Precomputing XC quadrature grid using
 IXCGrd= 4 IRadAn=           5 IRanWt=          -1 IRanGd=           0 AccXCQ= 0.00D+00.
 Generated NRdTot=       0 NPtTot=           0 NUsed=           0 NTot=          32
 NSgBfM=    25    25    25    25    25 MxSgAt=     6 MxSgA2=     6.
 Leave Link  302 at Thu Sep  5 23:06:37 2019, MaxMem=  2684354560 cpu:         1.3
 (Enter /soft/gaussian/09-e.01/g09/l303.exe)
 DipDrv:  MaxL=1.
 Leave Link  303 at Thu Sep  5 23:06:37 2019, MaxMem=  2684354560 cpu:         0.1
 (Enter /soft/gaussian/09-e.01/g09/l401.exe)
 Initial guess from the checkpoint file:  "/blues/gpfs/home/elliott/Packages/PACC/moldriver/rcdriver/tmprundir/RXN/CH3.H2/MDUSDFXREFXETQ/0_0/2_1/UHFFFAOYSA-N/CH4.H/HXBDELFRWIQQII/0_0/1_2/UHFFFAOYSA-N/2/ezvlpJU/SCANS/R6/01/RUN/OPTI/A03/Gau-155345.chk"
 B after Tr=     0.000000   -0.000000    0.000000
         Rot=    0.997822   -0.065967    0.000024    0.000023 Ang=  -7.56 deg.
 Guess basis will be translated and rotated to current coordinates.
 JPrj=2 DoOrth=T DoCkMO=T.
 Initial guess <Sx>= 0.0000 <Sy>= 0.0000 <Sz>= 0.5000 <S**2>= 0.7537 S= 0.5019
 Leave Link  401 at Thu Sep  5 23:06:37 2019, MaxMem=  2684354560 cpu:         0.5
 (Enter /soft/gaussian/09-e.01/g09/l502.exe)
 UHF open shell SCF:
 Using DIIS extrapolation, IDIIS=  1040.
 Integral symmetry usage will be decided dynamically.
 Keep R1 and R2 ints in memory in canonical form, NReq=976418.
 IVT=        8268 IEndB=        8268 NGot=  2684354560 MDV=  2684240343
 LenX=  2684240343 LenY=  2684239277
 Requested convergence on RMS density matrix=1.00D-08 within  64 cycles.
 Requested convergence on MAX density matrix=1.00D-06.
 Requested convergence on             energy=1.00D-06.
 No special actions if energy rises.
 FoFCou: FMM=F IPFlag=           0 FMFlag=           0 FMFlg1=           0
         NFxFlg=           0 DoJE=F BraDBF=F KetDBF=F FulRan=T
         wScrn=  0.000000 ICntrl=     600 IOpCl=  0 I1Cent=           0 NGrid=           0
         NMat0=    1 NMatS0=    325 NMatT0=    0 NMatD0=    1 NMtDS0=    0 NMtDT0=    0
 Symmetry not used in FoFCou.

 Cycle   1  Pass 1  IDiag  1:
 E= -41.0049365521195    
 DIIS: error= 9.49D-05 at cycle   1 NSaved=   1.
 NSaved= 1 IEnMin= 1 EnMin= -41.0049365521195     IErMin= 1 ErrMin= 9.49D-05
 ErrMax= 9.49D-05  0.00D+00 EMaxC= 1.00D-01 BMatC= 6.93D-07 BMatP= 6.93D-07
 IDIUse=1 WtCom= 1.00D+00 WtEn= 0.00D+00
 Coeff-Com:  0.100D+01
 Coeff:      0.100D+01
 Gap=     2.692 Goal=   None    Shift=    0.000
 Gap=     2.550 Goal=   None    Shift=    0.000
 RMSDP=3.00D-05 MaxDP=2.35D-04              OVMax= 4.61D-04

 Cycle   2  Pass 1  IDiag  1:
 E= -41.0049369311476     Delta-E=       -0.000000379028 Rises=F Damp=F
 DIIS: error= 2.24D-05 at cycle   2 NSaved=   2.
 NSaved= 2 IEnMin= 2 EnMin= -41.0049369311476     IErMin= 2 ErrMin= 2.24D-05
 ErrMax= 2.24D-05  0.00D+00 EMaxC= 1.00D-01 BMatC= 4.11D-08 BMatP= 6.93D-07
 IDIUse=1 WtCom= 1.00D+00 WtEn= 0.00D+00
 Coeff-Com:  0.689D-01 0.931D+00
 Coeff:      0.689D-01 0.931D+00
 Gap=     0.305 Goal=   None    Shift=    0.000
 Gap=     0.338 Goal=   None    Shift=    0.000
 RMSDP=6.98D-06 MaxDP=7.38D-05 DE=-3.79D-07 OVMax= 7.33D-05

 Cycle   3  Pass 1  IDiag  1:
 E= -41.0049369402430     Delta-E=       -0.000000009095 Rises=F Damp=F
 DIIS: error= 1.85D-05 at cycle   3 NSaved=   3.
 NSaved= 3 IEnMin= 3 EnMin= -41.0049369402430     IErMin= 3 ErrMin= 1.85D-05
 ErrMax= 1.85D-05  0.00D+00 EMaxC= 1.00D-01 BMatC= 2.23D-08 BMatP= 4.11D-08
 IDIUse=1 WtCom= 1.00D+00 WtEn= 0.00D+00
 Coeff-Com: -0.157D-01 0.415D+00 0.600D+00
 Coeff:     -0.157D-01 0.415D+00 0.600D+00
 Gap=     0.305 Goal=   None    Shift=    0.000
 Gap=     0.338 Goal=   None    Shift=    0.000
 RMSDP=3.17D-06 MaxDP=3.33D-05 DE=-9.10D-09 OVMax= 3.77D-05

 Cycle   4  Pass 1  IDiag  1:
 E= -41.0049369466561     Delta-E=       -0.000000006413 Rises=F Damp=F
 DIIS: error= 3.43D-06 at cycle   4 NSaved=   4.
 NSaved= 4 IEnMin= 4 EnMin= -41.0049369466561     IErMin= 4 ErrMin= 3.43D-06
 ErrMax= 3.43D-06  0.00D+00 EMaxC= 1.00D-01 BMatC= 6.74D-10 BMatP= 2.23D-08
 IDIUse=1 WtCom= 1.00D+00 WtEn= 0.00D+00
 Coeff-Com: -0.758D-02 0.573D-03 0.104D+00 0.903D+00
 Coeff:     -0.758D-02 0.573D-03 0.104D+00 0.903D+00
 Gap=     0.305 Goal=   None    Shift=    0.000
 Gap=     0.338 Goal=   None    Shift=    0.000
 RMSDP=8.88D-07 MaxDP=6.47D-06 DE=-6.41D-09 OVMax= 1.18D-05

 Cycle   5  Pass 1  IDiag  1:
 E= -41.0049369470667     Delta-E=       -0.000000000411 Rises=F Damp=F
 DIIS: error= 1.95D-06 at cycle   5 NSaved=   5.
 NSaved= 5 IEnMin= 5 EnMin= -41.0049369470667     IErMin= 5 ErrMin= 1.95D-06
 ErrMax= 1.95D-06  0.00D+00 EMaxC= 1.00D-01 BMatC= 8.02D-11 BMatP= 6.74D-10
 IDIUse=1 WtCom= 1.00D+00 WtEn= 0.00D+00
 Coeff-Com:  0.361D-02-0.535D-01-0.906D-01-0.127D+00 0.127D+01
 Coeff:      0.361D-02-0.535D-01-0.906D-01-0.127D+00 0.127D+01
 Gap=     0.305 Goal=   None    Shift=    0.000
 Gap=     0.338 Goal=   None    Shift=    0.000
 RMSDP=5.79D-07 MaxDP=5.34D-06 DE=-4.11D-10 OVMax= 1.02D-05

 Cycle   6  Pass 1  IDiag  1:
 E= -41.0049369471617     Delta-E=       -0.000000000095 Rises=F Damp=F
 DIIS: error= 6.34D-07 at cycle   6 NSaved=   6.
 NSaved= 6 IEnMin= 6 EnMin= -41.0049369471617     IErMin= 6 ErrMin= 6.34D-07
 ErrMax= 6.34D-07  0.00D+00 EMaxC= 1.00D-01 BMatC= 6.01D-12 BMatP= 8.02D-11
 IDIUse=1 WtCom= 1.00D+00 WtEn= 0.00D+00
 Coeff-Com:  0.169D-03 0.616D-02 0.641D-03-0.804D-01-0.929D-01 0.117D+01
 Coeff:      0.169D-03 0.616D-02 0.641D-03-0.804D-01-0.929D-01 0.117D+01
 Gap=     0.305 Goal=   None    Shift=    0.000
 Gap=     0.338 Goal=   None    Shift=    0.000
 RMSDP=1.44D-07 MaxDP=1.74D-06 DE=-9.50D-11 OVMax= 3.25D-06

 Cycle   7  Pass 1  IDiag  1:
 E= -41.0049369471687     Delta-E=       -0.000000000007 Rises=F Damp=F
 DIIS: error= 1.80D-07 at cycle   7 NSaved=   7.
 NSaved= 7 IEnMin= 7 EnMin= -41.0049369471687     IErMin= 7 ErrMin= 1.80D-07
 ErrMax= 1.80D-07  0.00D+00 EMaxC= 1.00D-01 BMatC= 4.91D-13 BMatP= 6.01D-12
[...]
 -----------------------------------------------------------------------------------------------
      1  C 
      2  H        1   0.000001(     1)
      3  H        1  -0.000001(     2)      2  -0.000006(     7)
      4  H        1  -0.000001(     3)      2  -0.000005(     8)      3   0.000041(    12)     0
      5  H        1   0.000006(     4)      2   0.000037(     9)      3  -0.000027(    13)     0
         X        5   0.000000(     5)      1  -0.000006(    10)      2  -0.000000(    14)     0
      6  H        5  -0.062404(     6)      6  -0.000006(    11)      1   0.000005(    15)     0
 -----------------------------------------------------------------------------------------------
 Internal  Forces:  Max     0.062403652 RMS     0.016112562
 Leave Link  716 at Thu Sep  5 23:07:10 2019, MaxMem=  2684354560 cpu:         0.2
 (Enter /soft/gaussian/09-e.01/g09/l103.exe)

 GradGradGradGradGradGradGradGradGradGradGradGradGradGradGradGradGradGrad
 Berny optimization.
 Search for a local minimum.
 Step number  25 out of a maximum of   25
 All quantities printed in internal units (Hartrees-Bohrs-Radians)
 Update second derivatives using D2CorN and points   23
 DE=  2.05D-08 DEPred=-1.84D-08 R=-1.11D+00
 Trust test=-1.11D+00 RLast= 1.87D-03 DXMaxT set to 5.00D-02
 The second derivative matrix:
                          R1        R2        A2        R3        A3
           R1           0.36452
           R2          -0.00371   0.35916
           A2          -0.00450   0.00010   0.31229
           R3          -0.00385   0.00057   0.00016   0.35933
           A3          -0.00455   0.00010   0.15197   0.00016   0.31218
           D3          -0.00007   0.00072  -0.00848   0.00070  -0.00400
           R4          -0.00040   0.00023   0.00158   0.00023   0.00152
           A4          -0.00048  -0.00052   0.00111  -0.00050   0.00185
           D4           0.00005   0.00060   0.00228   0.00059  -0.00357
           A6           0.00016   0.00002   0.00003   0.00002   0.00005
           D6          -0.00012  -0.00003  -0.00006  -0.00003  -0.00007
           A5           0.00017   0.00001   0.00017   0.00001   0.00017
           D5          -0.00000   0.00000   0.00000   0.00000   0.00000
           R5          -0.00000   0.00000   0.00000   0.00000   0.00000
           R6           0.00071  -0.00010   0.00004  -0.00011   0.00003
                          D3        R4        A4        D4        A6
           D3           0.16110
           R4          -0.00449   0.00142
           A4           0.09588  -0.00290   0.21044
           D4          -0.13552   0.00288   0.03050   0.21205
           A6          -0.00304   0.00062   0.00284  -0.00302   0.15975
           D6           0.00310  -0.00054  -0.00291   0.00308   0.00025
           A5          -0.00377   0.00064   0.00205  -0.00265   0.15986
           D5          -0.00000  -0.00000   0.00000  -0.00000  -0.00061
           R5          -0.00000   0.00000   0.00000  -0.00000  -0.00000
           R6           0.00036   0.00416  -0.00016   0.00022   0.00000
                          D6        A5        D5        R5        R6
           D6           0.15974
           A5           0.00014   0.16000
           D5          -0.00067  -0.00061   0.00001
           R5           0.00000  -0.00000   0.00000   0.00000
           R6          -0.00000   0.00000  -0.00000  -0.00000   0.24791
 ITU= -1 -1  0 -1 -1 -1 -1 -1 -1  0  0  0 -1  0  0 -1
     Eigenvalues ---    0.00125   0.00491   0.15982   0.16000   0.16010
     Eigenvalues ---    0.23937   0.33899   0.35624   0.35868   0.36771
     Eigenvalues ---    0.464931000.000001000.000001000.000001000.00000
 RFO step:  Lambda=-7.02122104D-08 EMin= 1.24542000D-03
 Quartic linear search produced a step of -0.95163.
 Variable       Old X    -DE/DX   Delta X   Delta X   Delta X     New X
                                 (Linear)    (Quad)   (Total)
    R1        2.04625   0.00000  -0.00000   0.00001   0.00001   2.04626
    R2        2.04627  -0.00000   0.00000  -0.00001  -0.00001   2.04626
    A2        2.09292  -0.00001   0.00001  -0.00003  -0.00002   2.09291
    R3        2.04627  -0.00000   0.00000  -0.00001  -0.00001   2.04626
    A3        2.09296  -0.00000   0.00001  -0.00003  -0.00002   2.09294
    D3        3.04078   0.00004   0.00017   0.00062   0.00079   3.04157
    R4        4.84277   0.00001   0.00172   0.00677   0.00849   4.85125
    A4        1.59181   0.00004  -0.00030  -0.00004  -0.00034   1.59147
    D4        4.66808  -0.00003   0.00028   0.00018   0.00046   4.66855
    A6        1.57417  -0.00001   0.00005  -0.00004   0.00000   1.57417
    D6        3.13873   0.00001  -0.00005   0.00004  -0.00001   3.13872
    A5        1.57080  -0.00001   0.00000   0.00000   0.00000   1.57080
    D5        3.14159  -0.00000   0.00000   0.00000   0.00000   3.14159
    R5        1.88973   0.00000   0.00000   0.00000   0.00000   1.88973
    R6        1.66844  -0.06240   0.00000   0.00000   0.00000   1.66844
         Item               Value     Threshold  Converged?
 Maximum Force            0.000041     0.000450     YES
 RMS     Force            0.000019     0.000300     YES
 Maximum Displacement     0.008487     0.001800     NO 
 RMS     Displacement     0.002206     0.001200     NO 
 Predicted change in Energy=-9.408141D-09
 Optimization stopped.
    -- Number of steps exceeded,  NStep=  25
    -- Flag reset to prevent archiving.
                       ----------------------------
                       ! Non-Optimized Parameters !
                       ! (Angstroms and Degrees)  !
 ----------------------                            ----------------------
 !      Name          Value   Derivative information (Atomic Units)     !
 ------------------------------------------------------------------------
 !       R1          1.0828   -DE/DX =    0.0                           !
 !       R2          1.0828   -DE/DX =    0.0                           !
 !       A2        119.9147   -DE/DX =    0.0                           !
 !       R3          1.0828   -DE/DX =    0.0                           !
 !       A3        119.9166   -DE/DX =    0.0                           !
 !       D3        174.2689   -DE/DX =    0.0                           !
 !       R4          2.5672   -DE/DX =    0.0                           !
 !       A4         91.1846   -DE/DX =    0.0                           !
 !       D4        267.4882   -DE/DX =    0.0                           !
 !       A6         90.1933   -DE/DX =    0.0                           !
 !       D6        179.8355   -DE/DX =    0.0                           !
 !       A5         90.0      -DE/DX =    0.0                           !
 !       D5        180.0      -DE/DX =    0.0                           !
 !       R5          1.0      -DE/DX =    0.0                           !
 !       R6          0.8829   -DE/DX =   -0.0624                        !
 ------------------------------------------------------------------------
 GradGradGradGradGradGradGradGradGradGradGradGradGradGradGradGradGradGrad

 Largest change from initial coordinates is atom    2       0.098 Angstoms.
 Leave Link  103 at Thu Sep  5 23:07:10 2019, MaxMem=  2684354560 cpu:         0.1
 (Enter /soft/gaussian/09-e.01/g09/l202.exe)
 ---------------------------------------------------------------------------------------------------
                            Z-MATRIX (ANGSTROMS AND DEGREES)
   CD    Cent   Atom    N1       Length/X        N2       Alpha/Y        N3        Beta/Z          J
 ---------------------------------------------------------------------------------------------------
      1      1  C 
      2      2  H        1   1.082831(     1)
      3      3  H        1   1.082837(     2)      2  119.916(     7)
      4      4  H        1   1.082839(     3)      2  119.918(     8)      3  174.224(    12)      0
      5      5  H        1   2.562681(     4)      2   91.204(     9)      3  267.462(    13)      0
      6         X        5   1.000000(     5)      1   90.000(    10)      2  180.000(    14)      0
      7      6  H        5   0.882900(     6)      6   90.193(    11)      1  179.836(    15)      0
 ---------------------------------------------------------------------------------------------------
                         Z-Matrix orientation:                         
 ---------------------------------------------------------------------
 Center     Atomic      Atomic             Coordinates (Angstroms)
 Number     Number       Type             X           Y           Z
 ---------------------------------------------------------------------
      1          6           0        0.000000    0.000000    0.000000
      2          1           0        0.000000    0.000000    1.082831
      3          1           0        0.938561    0.000000   -0.540037
      4          1           0       -0.933778   -0.094461   -0.540071
      5          1           0       -0.113475    2.559601   -0.053859
      6         -1           0       -0.112544    2.538605   -1.053638
      7          1           0       -0.150046    3.441606   -0.069439
 ---------------------------------------------------------------------
                    Distance matrix (angstroms):
                    1          2          3          4          5
     1  C    0.000000
     2  H    1.082831   0.000000
     3  H    1.082837   1.874726   0.000000
     4  H    1.082839   1.874747   1.874720   0.000000
     5  H    2.562681   2.802945   2.809752   2.820168   0.000000
     6  X    2.750879   3.319892   2.795197   2.805568   1.000000
     7  H    3.445575   3.632477   3.640217   3.652328   0.882900
                    6          7
     6  X    0.000000
     7  H    1.336212   0.000000
 Stoichiometry    CH5(2)
 Framework group  C1[X(CH5)]
 Deg. of freedom    12
 Full point group                 C1      NOp   1
 RotChk:  IX=3 Diff= 1.11D-16
 Largest Abelian subgroup         C1      NOp   1
 Largest concise Abelian subgroup C1      NOp   1
                         Standard orientation:                         
 ---------------------------------------------------------------------
 Center     Atomic      Atomic             Coordinates (Angstroms)
 Number     Number       Type             X           Y           Z
 ---------------------------------------------------------------------
      1          6           0        0.537603    0.000052   -0.000698
      2          1           0        0.558558    0.715989   -0.812806
      3          1           0        0.567482   -1.060909   -0.215183
      4          1           0        0.581384    0.345129    1.024751
      5          1           0       -2.025072   -0.000246    0.004729
      6          1           0       -2.907970   -0.000278    0.002695
 ---------------------------------------------------------------------
 Rotational constants (GHZ):    142.6862578     27.6570600     27.6567928
 Leave Link  202 at Thu Sep  5 23:07:10 2019, MaxMem=  2684354560 cpu:         0.1
 (Enter /soft/gaussian/09-e.01/g09/l601.exe)
 Copying SCF densities to generalized density rwf, IOpCl= 1 IROHF=0.

 **********************************************************************

            Population analysis using the SCF density.

 **********************************************************************

 Orbital symmetries:
 Alpha Orbitals:
       Occupied  (A) (A) (A) (A) (A) (A)
       Virtual   (A) (A) (A) (A) (A) (A) (A) (A) (A) (A) (A) (A)
                 (A) (A) (A) (A) (A) (A) (A)
 Beta  Orbitals:
       Occupied  (A) (A) (A) (A) (A)
       Virtual   (A) (A) (A) (A) (A) (A) (A) (A) (A) (A) (A) (A)
                 (A) (A) (A) (A) (A) (A) (A) (A)
 The electronic state is 2-A.
 Alpha  occ. eigenvalues --  -10.19789  -0.68695  -0.42149  -0.42148  -0.40085
 Alpha  occ. eigenvalues --   -0.22876
 Alpha virt. eigenvalues --    0.08094   0.11326   0.17834   0.17835   0.53982
 Alpha virt. eigenvalues --    0.53983   0.55155   0.62362   0.78616   0.90947
 Alpha virt. eigenvalues --    0.90948   0.96152   1.12195   1.64429   1.64429
 Alpha virt. eigenvalues --    2.00505   2.18168   2.18170   4.09137
  Beta  occ. eigenvalues --  -10.18401  -0.64707  -0.41203  -0.41202  -0.39735
  Beta virt. eigenvalues --   -0.06173   0.09324   0.12950   0.18383   0.18385
  Beta virt. eigenvalues --    0.54799   0.54800   0.60586   0.64932   0.80473
  Beta virt. eigenvalues --    0.91433   0.91435   0.98698   1.12792   1.71411
  Beta virt. eigenvalues --    1.71412   2.08979   2.19290   2.19292   4.12811
          Condensed to atoms (all electrons):
               1          2          3          4          5          6
     1  C    5.337456   0.379994   0.379994   0.379995   0.015266  -0.006117
     2  H    0.379994   0.510241  -0.029398  -0.029392   0.000027   0.000036
     3  H    0.379994  -0.029398   0.510272  -0.029392   0.000025   0.000039
     4  H    0.379995  -0.029392  -0.029392   0.510309   0.000021   0.000041
     5  H    0.015266   0.000027   0.000025   0.000021   0.612626   0.367426
     6  H   -0.006117   0.000036   0.000039   0.000041   0.367426   0.661967
          Atomic-Atomic Spin Densities.
               1          2          3          4          5          6
     1  C    1.144501  -0.009041  -0.009037  -0.009030   0.012900  -0.006657
     2  H   -0.009041  -0.043052   0.000968   0.000967  -0.000070   0.000023
     3  H   -0.009037   0.000968  -0.043060   0.000967  -0.000069   0.000022
     4  H   -0.009030   0.000967   0.000967  -0.043072  -0.000069   0.000021
     5  H    0.012900  -0.000070  -0.000069  -0.000069  -0.016299  -0.009492
     6  H   -0.006657   0.000023   0.000022   0.000021  -0.009492   0.056177
 Mulliken charges and spin densities:
               1          2
     1  C   -0.486587   1.123636
     2  H    0.168492  -0.050205
     3  H    0.168461  -0.050209
     4  H    0.168417  -0.050216
     5  H    0.004610  -0.013099
     6  H   -0.023393   0.040094
 Sum of Mulliken charges =  -0.00000   1.00000
 Mulliken charges and spin densities with hydrogens summed into heavy atoms:
               1          2
     1  C   -0.000000   1.000000
 Electronic spatial extent (au):  <R**2>=             88.7777
 Charge=              0.0000 electrons
 Dipole moment (field-independent basis, Debye):
    X=              0.3809    Y=              0.0001    Z=             -0.0014  Tot=              0.3809
 Quadrupole moment (field-independent basis, Debye-Ang):
   XX=            -10.8746   YY=             -9.1705   ZZ=             -9.1707
   XY=             -0.0015   XZ=              0.0214   YZ=             -0.0001
 Traceless Quadrupole moment (field-independent basis, Debye-Ang):
   XX=             -1.1360   YY=              0.5681   ZZ=              0.5679
   XY=             -0.0015   XZ=              0.0214   YZ=             -0.0001
 Octapole moment (field-independent basis, Debye-Ang**2):
  XXX=              0.9374  YYY=             -0.6781  ZZZ=              0.4515  XYY=              1.7497
  XXY=             -0.0014  XXZ=              0.0147  XZZ=              1.7596  YZZ=              0.6789
  YYZ=             -0.4652  XYZ=              0.0087
 Hexadecapole moment (field-independent basis, Debye-Ang**3):
 XXXX=            -96.6268 YYYY=            -15.9547 ZZZZ=            -15.9569 XXXY=             -0.0025
 XXXZ=              0.0603 YYYX=             -0.3989 YYYZ=              0.0006 ZZZX=              0.3184
 ZZZY=             -0.0027 XXYY=            -20.7250 XXZZ=            -20.7131 YYZZ=             -5.3169
 XXYZ=              0.0101 YYXZ=             -0.2524 ZZXY=              0.3940
 N-N= 1.340384742025D+01 E-N=-1.207077860643D+02  KE= 4.047395420646D+01
                          Isotropic Fermi Contact Couplings
        Atom                 a.u.       MegaHertz       Gauss      10(-4) cm-1
     1  C(13)              0.10818     121.61408      43.39492      40.56609
     2  H(1)              -0.01546     -69.10268     -24.65755     -23.05017
     3  H(1)              -0.01546     -69.10287     -24.65762     -23.05024
     4  H(1)              -0.01546     -69.10405     -24.65804     -23.05063
     5  H(1)              -0.00446     -19.95191      -7.11934      -6.65524
     6  H(1)               0.01285      57.43256      20.49337      19.15744
 --------------------------------------------------------
       Center         ----  Spin Dipole Couplings  ----
                      3XX-RR        3YY-RR        3ZZ-RR
 --------------------------------------------------------
     1   Atom        1.074761     -0.537500     -0.537260
     2   Atom       -0.005557     -0.006531      0.012088
     3   Atom       -0.005528      0.071225     -0.065696
     4   Atom       -0.005443     -0.056428      0.061871
     5   Atom        0.033412     -0.016707     -0.016705
     6   Atom        0.006206     -0.003103     -0.003103
 --------------------------------------------------------
                        XY            XZ            YZ
 --------------------------------------------------------
     1   Atom        0.001464     -0.019742     -0.000017
     2   Atom        0.000985     -0.001857     -0.073725
     3   Atom       -0.002517     -0.001328      0.028838
     4   Atom        0.001508      0.003497      0.044878
     5   Atom       -0.000001      0.000027      0.000002
     6   Atom       -0.000000     -0.000002      0.000000
 --------------------------------------------------------


 ---------------------------------------------------------------------------------
              Anisotropic Spin Dipole Couplings in Principal Axis System
 ---------------------------------------------------------------------------------

       Atom             a.u.   MegaHertz   Gauss  10(-4) cm-1        Axes

              Baa    -0.5375   -72.128   -25.737   -24.059  0.0096 -0.6807  0.7325
     1 C(13)  Bbb    -0.5375   -72.127   -25.737   -24.059  0.0077  0.7325  0.6807
              Bcc     1.0750   144.255    51.474    48.118  0.9999  0.0009 -0.0122
 
              Baa    -0.0715   -38.168   -13.619   -12.731  0.0074  0.7500  0.6614
     2 H(1)   Bbb    -0.0056    -2.990    -1.067    -0.997  0.9997 -0.0219  0.0136
              Bcc     0.0771    41.158    14.686    13.729 -0.0247 -0.6611  0.7499
 
              Baa    -0.0715   -38.166   -13.619   -12.731  0.0122 -0.1978  0.9802
     3 H(1)   Bbb    -0.0056    -2.993    -1.068    -0.998  0.9994  0.0348 -0.0054
              Bcc     0.0771    41.159    14.686    13.729 -0.0330  0.9796  0.1981
 
              Baa    -0.0715   -38.164   -13.618   -12.730 -0.0048  0.9478 -0.3187
     4 H(1)   Bbb    -0.0056    -2.996    -1.069    -0.999  0.9989 -0.0101 -0.0450
              Bcc     0.0771    41.160    14.687    13.730  0.0459  0.3186  0.9468
 
              Baa    -0.0167    -8.914    -3.181    -2.974  0.0003  0.8678 -0.4969
     5 H(1)   Bbb    -0.0167    -8.912    -3.180    -2.973 -0.0004  0.4969  0.8678
              Bcc     0.0334    17.827     6.361     5.946  1.0000 -0.0000  0.0005
 
              Baa    -0.0031    -1.656    -0.591    -0.552 -0.0001  0.8674 -0.4977
     6 H(1)   Bbb    -0.0031    -1.656    -0.591    -0.552  0.0002  0.4977  0.8674
              Bcc     0.0062     3.311     1.182     1.105  1.0000 -0.0000 -0.0002
 

 ---------------------------------------------------------------------------------

 No NMR shielding tensors so no spin-rotation constants.
 Leave Link  601 at Thu Sep  5 23:07:10 2019, MaxMem=  2684354560 cpu:         2.8
 (Enter /soft/gaussian/09-e.01/g09/l9999.exe)


 You don't have to suffer to be a poet.
 Adolescence is enough suffering for anyone.
                             -- John Ciardi
 Error termination request processed by link 9999.
 Error termination via Lnk1e in /soft/gaussian/09-e.01/g09/l9999.exe at Thu Sep  5 23:07:10 2019.
 Job cpu time:       0 days  0 hours  5 minutes 33.5 seconds.
 File lengths (MBytes):  RWF=     77 Int=      0 D2E=      0 Chk=      2 Scr=      2
