[Molden Format]
[Molpro variables]
_NUMVAR=  685.0000000000000    
_EV2006= 0.3674930886769165E-01
_EV= 0.3674932534394180E-01
_KJOULE= 0.3808798324128737E-03
_KJOULE/MOL= 0.3808798324128737E-03
_CM= 0.4556335267302901E-05
_CM-1= 0.4556335267302901E-05
_KCAL= 0.1593601117815568E-02
_KCAL/MOL= 0.1593601117815568E-02
_KELVIN2006= 0.3166828861084835E-05
_KELVIN= 0.3166814820820034E-05
_HERTZ2006= 0.1519829850815779E-15
_HERTZ= 0.1519829846011223E-15
_HZ2006= 0.1519829850815779E-15
_HZ= 0.1519829846011223E-15
_TOA2006= 0.5291772490000000    
_TOA= 0.5291772090000000    
_TOANG2006= 0.5291772490000000    
_TOANG= 0.5291772090000000    
_TORAD= 0.1745329251994330E-01
_TOCM=  219474.6306700000    
_TODEBYE=  2.541580000000000    
_TOEV2006=  27.21139610000000    
_TOEV=  27.21138390000000    
_TOHERTZ2006=  6579683899900000.    
_TOHERTZ=  6579683920700000.    
_TOHZ2006=  6579683899900000.    
_TOHZ=  6579683920700000.    
_TOK2006=  315773.3000000000    
_TOK=  315774.7000000000    
_TOKCAL=  627.5096000000000    
_TOKELVIN2006=  315773.3000000000    
_TOKELVIN=  315774.7000000000    
_TOKJ=  2625.500000000000    
_TOKJOULE=  2625.500000000000    
_ANG2006=  1.889725988578923    
_ANG=  1.889726131421507    
_ANGSTROM2006=  1.889725988578923    
_ANGSTROM=  1.889726131421507    
_IGNORE_UNDEF=  2.000000000000000    
_STRICTCHECK=  0.000000000000000    
_SEW_ONEEL=  0.000000000000000    
_CPPDONE=FALSE
_DKROLL_DONE=  0.000000000000000    
_FOCKDONE=  0.000000000000000    
_GRADONE=FALSE
_HESSDONE=FALSE
_INTDONE=TRUE
_SCFDONE=FALSE
_MODUL_CUDA=FALSE
_MODUL_SLATER=FALSE
_MODUL_MRCC=FALSE
_MRCC_EXEC=
_FITC_AO_SAVED=FALSE
_FITC_MO_SAVED=FALSE
_SHARED_FS=TRUE
_LSTYP=SEWARD
_INTYP=INTS
_GEOMTYP=ZMAT
_GRADTYP=ALASKA
_DIRECT=FALSE
_SYNCM=  0.000000000000000    
_BASIS=CC-PVDZ
_ZORIENT=  1.000000000000000    
_NELEC=  10.00000000000000    
_SPIN=  0.000000000000000    
!SPIN=  0.000000000000000    
_QSDSTEP=  0.000000000000000    
_QSDIRC=  0.000000000000000    
_PROGRAM=RS2
_CPUSTEP= 0.2999999999999997E-01
_SYSSTEP=  0.000000000000000    
_WALLSTEP=  1.350000000000000    
!DFMP2=  0.000000000000000    
!DFSCF=  0.000000000000000    
!SCSGRD=  0.000000000000000    
_BASINP=  610.0000000000000    
_CPUTOT= 0.4200000000000000    
_DFTEXFAC=  1.000000000000000    
_DMX= 0.3397166859223859E-06
_DMY=-0.3385478217017039E-06
_DMZ= 0.3818594996486362    
_EMP2= -40.23550346582054    
_ENERGR= -40.09821128781399    
_ENERGU= -40.22697787753318    
_ENERGY= -40.23550346582054    
_ENUC=  11.71167287360815    
_GRADEXFAC=  9999.000000000000    
_GRADMETHOD=TRUE
!GRID_FREEZE= -1.000000000000000    
_ITERATIONS=  5.000000000000000    
_LASTNELEC=  2.000000000000000    
_LASTSPIN=  0.000000000000000    
_LASTSYM=  1.000000000000000    
_MPP_PROG=  1.000000000000000    
_NPROC_MPP=  4.000000000000000    
_NPROC_SMP=  1.000000000000000    
_NUMSTEP=  0.000000000000000    
_ORBITAL=  2141.200000000000    
_PI=  3.141592653589793    
!MCACT=  2.000000000000000    
!MCCLOSED=  4.000000000000000    
!MCFREEZE=  0.000000000000000    
!MCMS2=  0.000000000000000    
!MCNEL=  2.000000000000000    
!MCNSTSYM=  1.000000000000000    
!MCSTATE=  1.000000000000000    
!MCSYM=  1.000000000000000    
!MCWEIGHT=  1.000000000000000    
_SEIG_MIN= 0.1442228379240012E-01
_SEWPROP=TRUE
_STATUS=  1.000000000000000    
_SYSTOT= 0.1300000000000000    
_VERSION=  2010001.000000000    
_WALLTOT=  8.660000000000000    
_DATE=30-Aug-19
_LASTORB=MCSCF
_MACHINE=Linux-2.6.34-12-desktop/tt109(x86_64) 64 bit mpp version
_OUTPUT=/home/carlo/qm/combustion/test_diss/newalg/ch4_ch3_h_vrc_test1/dist_2.1/molpro.xml
_PGROUP=C1
_TIME=06:48:28
_LIBMOL=/programs/molpro2010p/bin/../lib/
!SURFREC=  0.000000000000000    
!POLYREC=  0.000000000000000    
!DIPREC=  0.000000000000000    
!VSCFREC=  0.000000000000000    
!VCIREC=  0.000000000000000    
!PVCIREC=  0.000000000000000    
!VMP2REC=  0.000000000000000    
!VMCSCFREC=  0.000000000000000    
!GAREC=  0.000000000000000    
!SCFORB=  21002.00000000000    
!MCORB=  21412.00000000000    
!CIOCC=  6.000000000000000    
!CICORE=  1.000000000000000    
!CICLOS=  4.000000000000000    
!CIISTSYM=  1.000000000000000    
!CIISTMS2=  0.000000000000000    
!CIISTNEL=  8.000000000000000    
!NEWMOL=  0.000000000000000    
!NEWSYM=  0.000000000000000    
_SLFILES=slscratch
_NGSSTO=  9.000000000000000    
_SIN=SIN
_COS=COS
_TAN=TAN
_ACOS=ACOS
_ASIN=ASIN
_ATAN=ATAN
_COSH=COSH
_SINH=SINH
_TANH=TANH
_ABS=ABS
_MOD=MOD
_ERF=ERF
_REFC=REFC
_ERFC=ERFC
_HYPOT=HYPOT
_J0=J0
_J1=J1
_JN=JN
_GAMMA=GAMMA
_LGAMMA=LGAMMA
_Y0=Y0
_Y1=Y1
_YN=YN
_EXP=EXP
_LOG=LOG
_LOG10=LOG10
_SQRT=SQRT
_INT=INT
_NINT=NINT
_MAX=MAX
_MIN=MIN
_COSMO=  0.000000000000000    
_COSMOIT=  0.000000000000000    
_COSMOES=  0.000000000000000    
_COSMOEDS=  0.000000000000000    
_COSMOEC=  0.000000000000000    
_COSMOEDCORR=  0.000000000000000    
_FEPSI=  1.000000000000000    
_SL_IsMM=  0.000000000000000    
_SL_NSYM=  0.000000000000000    
_SL_System_BitSw=  0.000000000000000    
_SL_Unique_atoms=  0.000000000000000    
_SL_GRAD=  0.000000000000000    
_SL_MAXUPD_Hess=  5.000000000000000    
_SL_N_PRINT_COD=  5.000000000000000    
_SL_PRINT_CODES=  0.000000000000000    
_SL_BasType=  0.000000000000000    
_SL_Energy_Pred=  0.000000000000000    
_SL_New_Coords=  0.000000000000000    
_SL_Total_Nuclea=  0.000000000000000    
_SL_Highest_Mltp=  0.000000000000000    
_SL_Ref_Geom=  0.000000000000000    
!LATTICE= -1.000000000000000    
!NEWLATTICE=  0.000000000000000    
!LATGRAD_VAR=FALSE
!SEW_LATTICE=  1.000000000000000    
!LOCAL=  0.000000000000000    
!SAVEDOM= -1.000000000000000    
!RESTDOM= -1.000000000000000    
!SAVEDOM_HF= -1.000000000000000    
!RESTDOM_HF= -1.000000000000000    
!HESSREC=  0.000000000000000    
!FREQREC=  0.000000000000000    
!NMODREC=  0.000000000000000    
!GTASKS=  0.000000000000000    
!HTASKS=  0.000000000000000    
!THRCHG= 0.1000000000000000    
!DEBUG= -1.000000000000000    
!CFIT_CPHF=  0.000000000000000    
!RDOMAUX_CPHF=  3.000000000000000    
!THRAO_CPHF= 0.1000000000000000E-09
!THRMO_CPHF= 0.1000000000000000E-08
!THROV_CPHF= 0.1000000000000000E-11
!THRSW_CPHF= 0.1000000000000000E-09
!THRPROD_CPHF= 0.1000000000000000E-08
!THRAOPR_CPHF= 0.1000000000000000E-11
!CFIT_SCFGRD=  0.000000000000000    
!RDOMAUX_SCFGRD=  5.000000000000000    
!THRAO_SCFGRD= 0.1000000000000000E-09
!THRMO_SCFGRD= 0.1000000000000000E-08
!THROV_SCFGRD= 0.1000000000000000E-11
!THRSW_SCFGRD= 0.1000000000000000E-09
!THRPROD_SCFGRD= 0.1000000000000000E-08
!THRAOPR_SCFGRD= 0.1000000000000000E-11
!LOCFIT_SCF=  0.000000000000000    
!LOCFIT_MP2= -1.000000000000000    
_RIDOM=  0.000000000000000    
!CC2_METHOD=  0.000000000000000    
_BASIS2006=FALSE
_SVDDEL= -1.000000000000000    
_SVDDELA= -1.000000000000000    
_SVDDELP= -1.000000000000000    
_SVDDELF= -1.000000000000000    
_SVDDELS= -1.000000000000000    
_SVDDEL_ABS= -1.000000000000000    
_SVDDELA_ABS= -1.000000000000000    
_SVDDELP_ABS= -1.000000000000000    
_SVDDELF_ABS= -1.000000000000000    
_SVDDELS_ABS= -1.000000000000000    
_MAXBASIS=  0.000000000000000    
!OPT_CONICAL=  0.000000000000000    
!CLEARSP_JGRID=  0.000000000000000    
RCH1=  1.092449218674093    
RCH2=  1.092450787474960    
RCH3=  1.092450361104338    
AHCC1=  117.5161923337454    
AHCC2=  117.5162522308657    
AHCC3=  99.15853595691758    
B1=  149.1746692364699    
B2= -105.4125998184744    
RCH4=  2.100000000000000    
GX1= 0.3739626452253786E-08
GY1= 0.3083529052684553E-06
GZ1= 0.1873957739343908    
GX2= 0.5859663710061275    
GY2=  1.952061593024333    
GZ2= 0.5159847332372942    
GX3=  1.397554440288319    
GY3= -1.483494545272462    
GZ3= 0.5159797106219741    
GX4= -1.983519246914624    
GY4=-0.4685721818390091    
GZ4= 0.5159846725510248    
GX5=-0.1608942646114109E-05
GY5= 0.1459635538214599E-05
GZ5= -3.781029102050279    
CBSEN= -40.23550346582054    
[Atoms] Angs
C     1    6         0.0000000020        0.0000001632        0.0991655726
H     2    1         0.3100800488        1.0329865056        0.2730473610
H     3    1         0.7395539581       -0.7850315030        0.2730447032
H     4    1        -1.0496331791       -0.2479577194        0.2730473289
H     5    1        -0.0000008514        0.0000007724       -2.0008344274
[GTO]
  1 0
 s    9  1.00
  0.6665000000D+04  0.6920001793D-03
  0.1000000000D+04  0.5329001381D-02
  0.2280000000D+03  0.2707700701D-01
  0.6471000000D+02  0.1017180264D+00
  0.2106000000D+02  0.2747400712D+00
  0.7495000000D+01  0.4485641162D+00
  0.2797000000D+01  0.2850740738D+00
  0.5215000000D+00  0.1520400394D-01
  0.1596000000D+00 -0.3191000827D-02
 s    9  1.00
  0.6665000000D+04 -0.1460000642D-03
  0.1000000000D+04 -0.1154000508D-02
  0.2280000000D+03 -0.5725002519D-02
  0.6471000000D+02 -0.2331201026D-01
  0.2106000000D+02 -0.6395502813D-01
  0.7495000000D+01 -0.1499810660D+00
  0.2797000000D+01 -0.1272620560D+00
  0.5215000000D+00  0.5445292395D+00
  0.1596000000D+00  0.5804962554D+00
 s    9  1.00
  0.6665000000D+04  0.0000000000D+00
  0.1000000000D+04  0.0000000000D+00
  0.2280000000D+03  0.0000000000D+00
  0.6471000000D+02  0.0000000000D+00
  0.2106000000D+02  0.0000000000D+00
  0.7495000000D+01  0.0000000000D+00
  0.2797000000D+01  0.0000000000D+00
  0.5215000000D+00  0.0000000000D+00
  0.1596000000D+00  0.1000000000D+01
 p    4  1.00
  0.9439000000D+01  0.3810902127D-01
  0.2002000000D+01  0.2094801169D+00
  0.5456000000D+00  0.5085572839D+00
  0.1517000000D+00  0.4688422617D+00
 p    4  1.00
  0.9439000000D+01  0.0000000000D+00
  0.2002000000D+01  0.0000000000D+00
  0.5456000000D+00  0.0000000000D+00
  0.1517000000D+00  0.1000000000D+01
 d    1  1.00
  0.5500000000D+00  0.1000000000D+01
  
  2 0
 s    4  1.00
  0.1301000000D+02  0.1968498999D-01
  0.1962000000D+01  0.1379769298D+00
  0.4446000000D+00  0.4781477569D+00
  0.1220000000D+00  0.5012397451D+00
 s    4  1.00
  0.1301000000D+02  0.0000000000D+00
  0.1962000000D+01  0.0000000000D+00
  0.4446000000D+00  0.0000000000D+00
  0.1220000000D+00  0.1000000000D+01
 p    1  1.00
  0.7270000000D+00  0.1000000000D+01
  
  3 0
 s    4  1.00
  0.1301000000D+02  0.1968498999D-01
  0.1962000000D+01  0.1379769298D+00
  0.4446000000D+00  0.4781477569D+00
  0.1220000000D+00  0.5012397451D+00
 s    4  1.00
  0.1301000000D+02  0.0000000000D+00
  0.1962000000D+01  0.0000000000D+00
  0.4446000000D+00  0.0000000000D+00
  0.1220000000D+00  0.1000000000D+01
 p    1  1.00
  0.7270000000D+00  0.1000000000D+01
  
  4 0
 s    4  1.00
  0.1301000000D+02  0.1968498999D-01
  0.1962000000D+01  0.1379769298D+00
  0.4446000000D+00  0.4781477569D+00
  0.1220000000D+00  0.5012397451D+00
 s    4  1.00
  0.1301000000D+02  0.0000000000D+00
  0.1962000000D+01  0.0000000000D+00
  0.4446000000D+00  0.0000000000D+00
  0.1220000000D+00  0.1000000000D+01
 p    1  1.00
  0.7270000000D+00  0.1000000000D+01
  
  5 0
 s    4  1.00
  0.1301000000D+02  0.1968498999D-01
  0.1962000000D+01  0.1379769298D+00
  0.4446000000D+00  0.4781477569D+00
  0.1220000000D+00  0.5012397451D+00
 s    4  1.00
  0.1301000000D+02  0.0000000000D+00
  0.1962000000D+01  0.0000000000D+00
  0.4446000000D+00  0.0000000000D+00
  0.1220000000D+00  0.1000000000D+01
 p    1  1.00
  0.7270000000D+00  0.1000000000D+01
 
 
[MO]
 Sym=      1.1
 Ene=     -11.2656
 Spin= Alpha
 Occup=    2.000000
1 1.00132111608954
2 0.007362644576568
3 -0.008050187689864
4 0.000000000504820
5 0.000000001512548
6 0.000411187166400
7 -0.000000000738238
8 -0.000000001114630
9 0.000100130482672
10 0.000352727835602
11 0.000352730619706
12 -0.000705458455307
13 0.000000002688345
14 -0.000000001219697
15 0.000000001602943
16 -0.000326930285416
17 0.001393337865606
18 0.000125124801497
19 0.000416836177742
20 0.000110477542150
21 -0.000326922668208
22 0.001393329701945
23 0.000298428983587
24 -0.000316779551721
25 0.000110475908317
26 -0.000326926145725
27 0.001393332279789
28 -0.000423553756400
29 -0.000100056373263
30 0.000110477242183
31 0.000012868315559
32 0.000289728237611
33 0.000000000074528
34 -0.000000000043529
35 0.000326180046728
 Sym=      2.1
 Ene=      -0.9109
 Spin= Alpha
 Occup=    2.000000
1 -0.024173242786460
2 0.76103204973838
3 -0.14988229371825
4 0.000000134929217
5 0.000000336198919
6 0.086657647949969
7 -0.000000040230585
8 -0.000000184098644
9 -0.016152337547685
10 0.001949917997483
11 0.001949950894297
12 -0.003899868891781
13 0.000000020620160
14 -0.000000006757372
15 0.000000018627480
16 0.34898912176907
17 -0.14598063281681
18 -0.008020829438596
19 -0.026720227105173
20 -0.002107274936621
21 0.34898788258405
22 -0.14598004933180
23 -0.019129945570753
24 0.020306324387900
25 -0.002107187995581
26 0.34898820988999
27 -0.14598021209388
28 0.027150763267970
29 0.006413910479949
30 -0.002107262389081
31 0.011811736977816
32 -0.011061993249947
33 0.000000001921646
34 0.000000000654886
35 0.002760624627250
 Sym=      3.1
 Ene=      -0.5761
 Spin= Alpha
 Occup=    2.000000
1 -0.000000008789414
2 -0.000000258964148
3 -0.000000272191617
4 0.30096032537719
5 0.57431819305846
6 0.000000357224279
7 -0.055462939487670
8 -0.10583912961898
9 -0.000000120170914
10 -0.018937506489000
11 0.018937482311976
12 0.000000024177024
13 0.009044190370324
14 0.005156251645301
15 0.009839550578662
16 0.62072820863046
17 -0.17787603367130
18 -0.003894267354328
19 -0.021265124098851
20 -0.004461037403052
21 -0.20638472051571
22 0.059141588231601
23 0.013535570666077
24 0.002936376309853
25 0.001483216700070
26 -0.41434407800094
27 0.11873445268736
28 -0.016138493237286
29 0.005930270036030
30 0.002977802183191
31 -0.000000037078320
32 0.000000036535849
33 0.000711378714817
34 0.001357515940328
35 -0.000000003767440
 Sym=      4.1
 Ene=      -0.5761
 Spin= Alpha
 Occup=    2.000000
1 0.000000003828186
2 0.000000064879687
3 0.000000133803125
4 0.57431795578816
5 -0.30096024681903
6 -0.000000959350522
7 -0.10583867929929
8 0.055462724795095
9 0.000000211700374
10 -0.007832467111911
11 0.007832501514859
12 -0.000000034402948
13 -0.021867176877203
14 0.009839508299374
15 -0.005156178790847
16 -0.12006524818838
17 0.034405886376546
18 0.012999511634499
19 0.000437178674087
20 0.000862865860684
21 0.59759915253904
22 -0.17124780338779
23 -0.011202026612022
24 0.017867025091644
25 -0.004294742642492
26 -0.47753359156746
27 0.13684189939921
28 -0.014195910378751
29 -0.011807055803234
30 0.003431907094371
31 0.000000057999287
32 -0.000000041678928
33 0.001357517585511
34 -0.000711382184324
35 0.000000007197219
 Sym=      5.1
 Ene=      -0.3138
 Spin= Alpha
 Occup=    1.752184
1 0.003288091725788
2 -0.063357699111774
3 -0.042238004992958
4 0.000000619988477
5 -0.000000679303983
6 0.53307135605008
7 0.000000039039866
8 -0.000000083467821
9 0.045853443480197
10 0.008742101023719
11 0.008742105919111
12 -0.017484206942830
13 0.000000001363810
14 -0.000000017613416
15 0.000000027124518
16 0.068237874840754
17 -0.012473870836810
18 -0.000637910885405
19 -0.002125171344742
20 0.011207212391172
21 0.068237926665174
22 -0.012473768118697
23 -0.001521463978321
24 0.001615022065956
25 0.011207198166845
26 0.068237854809988
27 -0.012473810971977
28 0.002159413189017
29 0.000510104035739
30 0.011207197326416
31 -0.62221947373812
32 -0.036620965790877
33 -0.000000002352680
34 -0.000000000095996
35 -0.005260327567011
 Sym=      6.1
 Ene=       0.0767
 Spin= Alpha
 Occup=    0.247816
1 0.000763153503813
2 -0.18959494251415
3 -0.077942323662381
4 0.000000766342350
5 -0.000000803126003
6 0.74867822358581
7 0.000000060534539
8 -0.000000096549779
9 0.056590248447558
10 0.009575787528749
11 0.009575792922807
12 -0.019151580451556
13 0.000000006509088
14 -0.000000032799923
15 0.000000054090552
16 0.037432346205151
17 -0.010613151831859
18 0.000065679420511
19 0.000218741514551
20 0.013636535975122
21 0.037432079594303
22 -0.010613081940466
23 0.000156639275786
24 -0.000166272650786
25 0.013636506440404
26 0.037432290388339
27 -0.010613106738253
28 -0.000222271460405
29 -0.000052526323532
30 0.013636512936960
31 0.93550258224737
32 -0.12456742959890
33 -0.000000000641196
34 0.000000001092698
35 -0.006591645403184
 Sym=      7.1
 Ene=       0.1992
 Spin= Alpha
 Occup=    0.000000
1 -0.084095339455081
2 0.18769180575159
3 2.07025701966216
4 0.000000086453071
5 -0.000000957400517
6 0.13309497314652
7 0.000000224927761
8 -0.000001613180916
9 0.17619361149418
10 0.009686573794520
11 0.009686617505144
12 -0.019373191299664
13 0.000000042059342
14 -0.000000039761198
15 0.000000038237167
16 -0.062890750763458
17 -1.01144768976144
18 0.004486196632299
19 0.014945119228702
20 0.005875249284862
21 -0.062891076520503
22 -1.01144919594970
23 0.010699760888485
24 -0.011357733730299
25 0.005875176137974
26 -0.062890978767263
27 -1.01144898055731
28 -0.015185947765501
29 -0.003587422551922
30 0.005875227126606
31 0.10308721745021
32 0.004718607889127
33 -0.000000006579818
34 0.000000003671361
35 -0.002296658412913
 Sym=      8.1
 Ene=       0.2646
 Spin= Alpha
 Occup=    0.000000
1 -0.000000011859601
2 0.000000117816861
3 0.000001406215023
4 -0.42640938151225
5 0.16490292948612
6 0.000000702929511
7 -1.12192613301162
8 0.43387592418592
9 0.000001968069746
10 0.008958979261532
11 -0.008959001863019
12 0.000000022601487
13 0.018675840972806
14 -0.013859335975924
15 0.005359707633038
16 -0.003308948778343
17 -0.16383068163093
18 -0.003050299721098
19 0.003077037916690
20 0.000154400996361
21 0.038607767220964
22 1.91158203422713
23 -0.017762093778482
24 0.016451803334771
25 -0.001801438116087
26 -0.035298801627339
27 -1.74775304187121
28 -0.021989100758078
29 -0.002976455231084
30 0.001647102590117
31 -0.000000080767510
32 0.000000224044120
33 0.001635228573477
34 -0.000632389302041
35 0.000000007331612
 Sym=      9.1
 Ene=       0.2646
 Spin= Alpha
 Occup=    0.000000
1 -0.000000086105863
2 0.000000147360134
3 0.000004709100172
4 0.16490275196301
5 0.42640909963640
6 0.000000500078232
7 0.43387701162399
8 1.12192768936993
9 0.000001292766206
10 -0.016173797349583
11 0.016173843919368
12 -0.000000046569785
13 0.010345015876276
14 0.005359802953895
15 0.013859400706328
16 -0.042669005911758
17 -2.11272398046832
18 0.007957939217148
19 0.025484154136083
20 0.001991063250372
21 0.018469279084989
22 0.91447717144412
23 -0.005416906967186
24 0.010772134231645
25 -0.000861781607700
26 0.024200037053977
27 1.19824097755683
28 0.014011343849949
29 0.006545209107245
30 -0.001129226232772
31 0.000000068776930
32 0.000000259067531
33 -0.000632381006551
34 -0.001635240870663
35 -0.000000003570590
 Sym=     10.1
 Ene=       0.5995
 Spin= Alpha
 Occup=    0.000000
1 0.000000219210798
2 0.000000441962955
3 -0.000002596006289
4 -0.36047010459185
5 0.26089425523400
6 0.000001232710690
7 1.29197114443402
8 -0.93507914646925
9 -0.000004739468779
10 0.025535237273272
11 -0.025535133164626
12 -0.000000104108646
13 0.11626772180312
14 -0.026563374384484
15 0.019225432970146
16 0.43470192076769
17 -0.16972262195624
18 0.056821306538400
19 -0.015814991756159
20 0.003142881409633
21 -1.29919198707657
22 0.50725326654504
23 0.006089590670485
24 0.010618341631269
25 -0.009393225604636
26 0.86449448351784
27 -0.33753138032357
28 0.008563068096761
29 -0.046533439069624
30 0.006250323027330
31 0.000003220028409
32 -0.000004754321044
33 0.042179798672017
34 -0.030528082554599
35 -0.000000011371330
 Sym=     11.1
 Ene=       0.5995
 Spin= Alpha
 Occup=    0.000000
1 -0.000000293938637
2 -0.000000905165003
3 0.000003697476228
4 -0.26089440479808
5 -0.36047060087663
6 -0.000000657928239
7 0.93508121593062
8 1.29197678700579
9 0.000002055578420
10 0.10069051334141
11 -0.10069056759319
12 0.000000054251779
13 -0.029485343045833
14 -0.019225781911144
15 -0.026563586864297
16 -1.24920499282349
17 0.48772894720009
18 0.018671561731337
19 -0.009172092020531
20 -0.009031945225871
21 0.24813959010623
22 -0.096881419303758
23 0.045105270167243
24 0.041560056701830
25 0.001794076382663
26 1.00106299069120
27 -0.39084862826689
28 -0.012046570139731
29 0.039086324281856
30 0.007237855926596
31 -0.000000996474481
32 0.000001573934166
33 0.030528158567371
34 0.042179891504917
35 0.000000029413742
 Sym=     12.1
 Ene=       0.6434
 Spin= Alpha
 Occup=    0.000000
1 0.052413717641363
2 0.34289429254123
3 -0.26289542501178
4 -0.000000891819264
5 0.000000661600131
6 -0.47159498770997
7 0.000002903854576
8 -0.000002828898294
9 1.07860829809331
10 -0.022840534005652
11 -0.022840416313305
12 0.045680950318957
13 0.000000391226612
14 0.000000070648121
15 0.000000015423824
16 -0.33028396593477
17 0.10519326995218
18 -0.008818081820484
19 -0.029376609124628
20 -0.037315490774084
21 -0.33028983735200
22 0.10519751879620
23 -0.021032002109451
24 0.022325249516317
25 -0.037315467353533
26 -0.33028560195630
27 0.10519559628095
28 0.029850093505048
29 0.007051380456445
30 -0.037315427242747
31 -1.70731761907377
32 2.31105658180143
33 0.000000065408857
34 -0.000000113366649
35 -0.019895726003134
 Sym=     13.1
 Ene=       0.7159
 Spin= Alpha
 Occup=    0.000000
1 -0.12302421321938
2 -0.24466668986091
3 0.82090007685878
4 -0.000000993941741
5 0.000000114789750
6 -0.59360275109201
7 0.000001726423029
8 -0.000000124364697
9 0.72812230639942
10 -0.11533112763182
11 -0.11533087727250
12 0.23066200490432
13 0.000000013001586
14 0.000000383884505
15 -0.000000311374974
16 -0.90638168951805
17 0.63941003391627
18 -0.020252217455077
19 -0.067467396501174
20 0.003142043560883
21 -0.90638533337103
22 0.63941535100924
23 -0.048302415770555
24 0.051272595412177
25 0.003142406488963
26 -0.90638421292245
27 0.63941452745894
28 0.068554683298406
29 0.016194771139198
30 0.003142157866593
31 1.01389692481098
32 -1.18215551494033
33 0.000000060186787
34 -0.000000094131296
35 0.10823938200287
 Sym=     14.1
 Ene=       0.8245
 Spin= Alpha
 Occup=    0.000000
1 0.063396901051582
2 0.45633767577207
3 -0.85406327417679
4 0.000001281786329
5 -0.000007172625837
6 1.26967705114722
7 -0.000001143121956
8 0.000011355350214
9 -1.55811408136393
10 -0.084274888022873
11 -0.084273839836754
12 0.16854872785963
13 0.000000841756144
14 0.000000328230402
15 -0.000000038759701
16 -0.56686587425683
17 0.70391185810154
18 -0.035113494695853
19 -0.11697638162829
20 0.019803801648590
21 -0.56687255336756
22 0.70392740890679
23 -0.083748799099008
24 0.088898502078635
25 0.019803507122163
26 -0.56686973358706
27 0.70392242114641
28 0.11886244177593
29 0.028078740249050
30 0.019803364455728
31 -0.51451923417542
32 0.13887886581792
33 0.000000031183938
34 0.000000087059486
35 0.087084695472727
 Sym=     15.1
 Ene=       0.8805
 Spin= Alpha
 Occup=    0.000000
1 -0.000000091814998
2 0.000000138682888
3 -0.000001179019894
4 -1.12985143903264
5 0.54156929648150
6 0.000004166032053
7 2.06686180132533
8 -0.99070445543877
9 -0.000006145978774
10 -0.11615157686050
11 0.11615133537303
12 0.000000241487466
13 -0.29408195905431
14 0.080441862613102
15 -0.038557638629250
16 -0.095270790832047
17 0.31079039832604
18 -0.081781166619902
19 -0.020200498714357
20 -0.008015506886181
21 0.57443881265944
22 -1.87393742820954
23 0.15797276430222
24 -0.20622250006834
25 0.048330391129009
26 -0.47917133173533
27 1.56315096129622
28 0.19919619422057
29 0.094421973462695
30 -0.040315335649877
31 -0.000001888143166
32 0.000001167804071
33 0.028094678749553
34 -0.013466534849583
35 0.000000195434046
 Sym=     16.1
 Ene=       0.8805
 Spin= Alpha
 Occup=    0.000000
1 -0.000000540820846
2 -0.000001218665963
3 -0.000000159745930
4 0.54156885276077
5 1.12985047204544
6 0.000005055137864
7 -0.99070441144962
8 -2.06686149997157
9 -0.000006491739110
10 0.25468197520443
11 -0.25468306606644
12 0.000001090862013
13 -0.13412051069793
14 -0.038558776295664
15 -0.080442610756571
16 -0.60830486638670
17 1.98440801784843
18 -0.067800911990555
19 -0.26537385215598
20 -0.051180128788575
21 0.22164244252295
22 -0.72304849873470
23 0.11822165522205
24 -0.025618543414572
25 0.018648159202559
26 0.38665463379120
27 -1.26135137951723
28 -0.18242206473671
29 0.015604084464015
30 0.032531935917616
31 -0.000002555985917
32 0.000001013370533
33 -0.013466589449316
34 -0.028094674839288
35 0.000000622483892
 Sym=     17.1
 Ene=       1.0693
 Spin= Alpha
 Occup=    0.000000
1 -0.74812448229562
2 -3.41511622066181
3 5.61750849751023
4 -0.000000086911433
5 -0.000000089402090
6 0.16491236289877
7 0.000000749176468
8 0.000000836361693
9 0.047790207017009
10 -0.013364431051332
11 -0.013363428373047
12 0.026727859424378
13 0.000000740834937
14 -0.000000019453669
15 0.000000298183453
16 -0.10950910599820
17 -0.81108292470933
18 0.044840121642295
19 0.14937813548723
20 0.050222361355280
21 -0.10950966996837
22 -0.81107847545962
23 0.10694487759611
24 -0.11352137135168
25 0.050221523034724
26 -0.10950950103180
27 -0.81107923522967
28 -0.15178473952276
29 -0.035856659642121
30 0.050222110659668
31 -0.47670169719938
32 0.34101131146219
33 0.000000017712952
34 0.000000006732273
35 0.21728727639788
 Sym=     18.1
 Ene=       1.1882
 Spin= Alpha
 Occup=    0.000000
1 -0.000000081026874
2 -0.000000326370924
3 0.000000379626078
4 0.040692478420776
5 0.051732860691283
6 0.000000573940076
7 0.014526813392491
8 0.018468344717622
9 -0.000000591891171
10 -0.14839593003930
11 0.14839600920103
12 -0.000000079161732
13 0.036226929122072
14 -0.36691959298256
15 -0.46647002657753
16 -0.089488347255772
17 0.051537188628883
18 -0.044682189897572
19 0.046948467518169
20 -0.34623226445891
21 0.014248414949922
22 -0.008205760147800
23 -0.11417173804393
24 -0.10053160720389
25 0.055127326514856
26 0.075239927836853
27 -0.043331490315735
28 0.048294889489176
29 -0.086972189908362
30 0.29110552051257
31 -0.000000210247542
32 0.000000135411214
33 0.079356253727649
34 0.10088674839630
35 0.000000000240409
 Sym=     19.1
 Ene=       1.1882
 Spin= Alpha
 Occup=    0.000000
1 -0.000000336843455
2 -0.000001414134590
3 0.000002358814664
4 -0.051732920024660
5 0.040692440837725
6 0.000000405567572
7 -0.018467893534811
8 0.014526781149816
9 -0.000000264287619
10 0.031374104472910
11 -0.031372617435628
12 -0.000001487037282
13 0.17135063144760
14 0.46647070346282
15 -0.36692018913317
16 -0.035213702629209
17 0.020279579908666
18 0.14065116250773
19 -0.029024065786647
20 -0.13624212490740
21 0.095105272954017
22 -0.054772473028891
23 -0.006827733001342
24 0.040465117881086
25 0.36796775600691
26 -0.059892286121207
27 0.034492361872786
28 0.006731595720325
29 -0.12199998436797
30 -0.23172531084541
31 -0.000000119059097
32 0.000000123156426
33 -0.10088685018464
34 0.079356394135059
35 -0.000000337123416
 Sym=     20.1
 Ene=       1.5344
 Spin= Alpha
 Occup=    0.000000
1 0.000000768650341
2 0.000003198495510
3 -0.000005565093127
4 0.099060066270111
5 0.13139590515727
6 -0.000000627969774
7 0.020701604409252
8 0.027459330384023
9 0.000000302294033
10 -0.13319727350005
11 0.13319601648856
12 0.000001257011494
13 0.035827459730303
14 0.040282903000547
15 0.053432218919138
16 -0.32039455109607
17 0.17609078815395
18 -0.093554375289402
19 -0.079468447887170
20 0.18854597518580
21 0.057536275488878
22 -0.031621489936896
23 -0.12534367143666
24 -0.14349594878447
25 -0.033857758994855
26 0.26286228609320
27 -0.14446977383011
28 -0.053999043248912
29 -0.13901339454948
30 -0.15468757727025
31 -0.000000088970228
32 0.000000365960424
33 0.53815036267143
34 0.71381695641004
35 0.000000689157403
 Sym=     21.1
 Ene=       1.5344
 Spin= Alpha
 Occup=    0.000000
1 0.000001125102998
2 0.000004594594846
3 -0.000008259377173
4 -0.13139563363295
5 0.099059868744271
6 -0.000000604043594
7 -0.027458838045007
8 0.020701494494329
9 0.000000284718380
10 0.031026582873046
11 -0.031028361881375
12 0.000001779008330
13 0.15380246810955
14 -0.053431969933151
15 0.040282575857389
16 -0.11854288272375
17 0.065152552029646
18 0.16185011414169
19 -0.088377371257728
20 0.069761202698609
21 0.33674447463411
22 -0.18507534739959
23 0.097821751402439
24 -0.056587261753853
25 -0.19816545095316
26 -0.21819585952646
27 0.11992250440184
28 0.10230554119721
29 -0.12793193965306
30 0.12840489319356
31 0.000000039583618
32 0.000000301691967
33 -0.71381711345028
34 0.53815053095337
35 0.000001252243712
 Sym=     22.1
 Ene=       1.5931
 Spin= Alpha
 Occup=    0.000000
1 0.46137327047919
2 1.81432399118327
3 -3.33642455183697
4 -0.000000204411278
5 -0.000001316991739
6 -0.30192146542205
7 0.000000230173410
8 0.000001478113904
9 0.046759972705290
10 -0.31587120028824
11 -0.31587079370931
12 0.63174199399755
13 -0.000000156671877
14 0.000001334867027
15 -0.000001192605936
16 0.91204308986880
17 -0.16874188277545
18 0.001177132130425
19 0.003922911341831
20 0.24349099823242
21 0.91204241460613
22 -0.16874234021067
23 0.002808709099749
24 -0.002981138283224
25 0.24349249662023
26 0.91204349835370
27 -0.16874260832474
28 -0.003986229441117
29 -0.000941040686269
30 0.24349137315299
31 -0.13962544400636
32 0.32165453459603
33 0.000000542056961
34 -0.000002460931894
35 0.54211286213709
 Sym=     23.1
 Ene=       1.6169
 Spin= Alpha
 Occup=    0.000000
1 -0.000000000155581
2 -0.000000000531605
3 0.000000000115964
4 0.000000003205660
5 0.000000212868422
6 0.000000000049119
7 -0.000001258034255
8 -0.000000893918326
9 0.000000000004685
10 0.000000549061188
11 -0.000000548764913
12 -0.000000000296274
13 0.000000170068808
14 -0.000000267400529
15 -0.000000085425877
16 0.000001195997302
17 -0.000000289730509
18 0.57023586253580
19 -0.17117189708843
20 -0.000000886205229
21 0.000000665311754
22 -0.000000444094394
23 -0.43335675516501
24 -0.40825251337957
25 -0.000000035228522
26 -0.000001862794211
27 0.000000735549594
28 -0.13687825889728
29 0.57942478323520
30 0.000000920576217
31 0.000000000695392
32 -0.000000000811677
33 0.000001358582500
34 0.000000747591767
35 -0.000000000314184
 Sym=     24.1
 Ene=       1.7715
 Spin= Alpha
 Occup=    0.000000
1 -0.000000267553919
2 -0.000001104526737
3 0.000001720018269
4 -0.11601911363059
5 0.022268146452570
6 0.000000279496493
7 1.16392217886621
8 -0.22339638729289
9 -0.000001148859609
10 -0.23756496810142
11 0.23756613309449
12 -0.000001164993071
13 -0.33561824273991
14 0.074031215482941
15 -0.014208405154823
16 -0.11414407272482