 Entering Gaussian System, Link 0=g09
 Input=run.inp
 Output=run.out
 Initial command:
 /soft/gaussian/09-e.01/g09/l1.exe "/blues/gpfs/home/elliott/Packages/PACC/moldriver/rcdriver/rundir/RXN/CH3.H2/MDUSDFXREFXETQ/0_0/2_1/UHFFFAOYSA-N/CH4.H/HXBDELFRWIQQII/0_0/1_2/UHFFFAOYSA-N/2/ezvlpJU/SCANS/R6/05/RUN/OPTI/A00/Gau-42996.inp" -scrdir="/blues/gpfs/home/elliott/Packages/PACC/moldriver/rcdriver/rundir/RXN/CH3.H2/MDUSDFXREFXETQ/0_0/2_1/UHFFFAOYSA-N/CH4.H/HXBDELFRWIQQII/0_0/1_2/UHFFFAOYSA-N/2/ezvlpJU/SCANS/R6/05/RUN/OPTI/A00/"
 Entering Link 1 = /soft/gaussian/09-e.01/g09/l1.exe PID=     42997.
  
 Copyright (c) 1988,1990,1992,1993,1995,1998,2003,2009,2015,
            Gaussian, Inc.  All Rights Reserved.
  
 This is part of the Gaussian(R) 09 program.  It is based on
 the Gaussian(R) 03 system (copyright 2003, Gaussian, Inc.),
 the Gaussian(R) 98 system (copyright 1998, Gaussian, Inc.),
 the Gaussian(R) 94 system (copyright 1995, Gaussian, Inc.),
 the Gaussian 92(TM) system (copyright 1992, Gaussian, Inc.),
 the Gaussian 90(TM) system (copyright 1990, Gaussian, Inc.),
 the Gaussian 88(TM) system (copyright 1988, Gaussian, Inc.),
 the Gaussian 86(TM) system (copyright 1986, Carnegie Mellon
 University), and the Gaussian 82(TM) system (copyright 1983,
 Carnegie Mellon University). Gaussian is a federally registered
 trademark of Gaussian, Inc.
  
 This software contains proprietary and confidential information,
 including trade secrets, belonging to Gaussian, Inc.
  
 This software is provided under written license and may be
 used, copied, transmitted, or stored only in accord with that
 written license.
  
 The following legend is applicable only to US Government
 contracts under FAR:
  
                    RESTRICTED RIGHTS LEGEND
  
 Use, reproduction and disclosure by the US Government is
 subject to restrictions as set forth in subparagraphs (a)
 and (c) of the Commercial Computer Software - Restricted
 Rights clause in FAR 52.227-19.
  
 Gaussian, Inc.
 340 Quinnipiac St., Bldg. 40, Wallingford CT 06492
  
  
 ---------------------------------------------------------------
 Warning -- This program may not be used in any manner that
 competes with the business of Gaussian, Inc. or will provide
 assistance to any competitor of Gaussian, Inc.  The licensee
 of this program is prohibited from giving any competitor of
 Gaussian, Inc. access to this program.  By using this program,
 the user acknowledges that Gaussian, Inc. is engaged in the
 business of creating and licensing software in the field of
 computational chemistry and represents and warrants to the
 licensee that it is not a competitor of Gaussian, Inc. and that
 it will not use this program in any manner prohibited above.
 ---------------------------------------------------------------
  

 Cite this work as:
 Gaussian 09, Revision E.01,
 M. J. Frisch, G. W. Trucks, H. B. Schlegel, G. E. Scuseria, 
 M. A. Robb, J. R. Cheeseman, G. Scalmani, V. Barone, B. Mennucci, 
 G. A. Petersson, H. Nakatsuji, M. Caricato, X. Li, H. P. Hratchian, 
 A. F. Izmaylov, J. Bloino, G. Zheng, J. L. Sonnenberg, M. Hada, 
 M. Ehara, K. Toyota, R. Fukuda, J. Hasegawa, M. Ishida, T. Nakajima, 
 Y. Honda, O. Kitao, H. Nakai, T. Vreven, J. A. Montgomery, Jr., 
 J. E. Peralta, F. Ogliaro, M. Bearpark, J. J. Heyd, E. Brothers, 
 K. N. Kudin, V. N. Staroverov, T. Keith, R. Kobayashi, J. Normand, 
 K. Raghavachari, A. Rendell, J. C. Burant, S. S. Iyengar, J. Tomasi, 
 M. Cossi, N. Rega, J. M. Millam, M. Klene, J. E. Knox, J. B. Cross, 
 V. Bakken, C. Adamo, J. Jaramillo, R. Gomperts, R. E. Stratmann, 
 O. Yazyev, A. J. Austin, R. Cammi, C. Pomelli, J. W. Ochterski, 
 R. L. Martin, K. Morokuma, V. G. Zakrzewski, G. A. Voth, 
 P. Salvador, J. J. Dannenberg, S. Dapprich, A. D. Daniels, 
 O. Farkas, J. B. Foresman, J. V. Ortiz, J. Cioslowski, 
 and D. J. Fox, Gaussian, Inc., Wallingford CT, 2013.
 
 ******************************************
 Gaussian 09:  ES64L-G09RevE.01 30-Nov-2015
                23-Aug-2019 
 ******************************************
 %mem=20GB
 %NProcShared=10
 Will use up to   10 processors via shared memory.
 -----------------------------------------------------
 #P b3lyp/6-31g* # SCF=(xqc) # POpt=() # int=ultrafine
 -----------------------------------------------------
 1/10=7,14=-1,26=4,38=1/1,3;
 2/12=2,17=6,18=5,29=3,40=1/2;
 3/5=1,6=6,7=1,11=2,16=1,25=1,30=1,71=1,74=-5,75=-5/1,2,3;
 4//1;
 5/5=2,8=3,13=1,38=5/2,8;
 6/7=2,8=2,9=2,10=2,28=1/1;
 7/29=1/1,2,3,16;
 1/10=7,14=-1,26=4/3(2);
 2/29=3/2;
 99//99;
 2/29=3/2;
 3/5=1,6=6,7=1,11=2,16=1,25=1,30=1,71=1,74=-5,75=-5/1,2,3;
 4/5=5,16=3,69=1/1;
 5/5=2,8=3,13=1,38=5/2,8;
 7//1,2,3,16;
 1/14=-1,26=4/3(-5);
 2/29=3/2;
 6/7=2,8=2,9=2,10=2,19=2,28=1/1;
 99/9=1/99;
 Leave Link    1 at Fri Aug 23 16:08:45 2019, MaxMem=  2684354560 cpu:         0.7
 (Enter /soft/gaussian/09-e.01/g09/l101.exe)
 --------
 comment:
 --------
 Symbolic Z-matrix:
 Charge =  0 Multiplicity = 2
 C
 H                    1    R1
 H                    1    R2       2    A2
 H                    1    R3       2    A3       3    D3       0
 H                    1    R4       2    A4       3    D4       0
 X                    5    R5       1    A5       2    D5       0
 H                    5    R6       6    A6       1    D6       0
       Variables:
  R1                    1.0922                   
  R2                    1.0922                   
  A2                  109.471                    
  R3                    1.0922                   
  A3                  109.471                    
  D3                  120.                       
  R4                    1.0922                   
  A4                  109.471                    
  D4                  240.                       
  D6                  180.                       
  A6                   85.                       
       Constants:
  R5                    1.                       
  A5                   90.                       
  D5                  180.                       
  R6                    1.45429                  
 
     3 tetrahedral angles replaced.
 NAtoms=      6 NQM=        6 NQMF=       0 NMMI=      0 NMMIF=      0
                NMic=       0 NMicF=      0.
    3 tetrahedral angles replaced.
                    Isotopes and Nuclear Properties:
 (Nuclear quadrupole moments (NQMom) in fm**2, nuclear magnetic moments (NMagM)
  in nuclear magnetons)

  Atom         1           2           3           4           5           6
 IAtWgt=          12           1           1           1           1           1
 AtmWgt=  12.0000000   1.0078250   1.0078250   1.0078250   1.0078250   1.0078250
 NucSpn=           0           1           1           1           1           1
 AtZEff=   0.0000000   0.0000000   0.0000000   0.0000000   0.0000000   0.0000000
 NQMom=    0.0000000   0.0000000   0.0000000   0.0000000   0.0000000   0.0000000
 NMagM=    0.0000000   2.7928460   2.7928460   2.7928460   2.7928460   2.7928460
 AtZNuc=   6.0000000   1.0000000   1.0000000   1.0000000   1.0000000   1.0000000
 Leave Link  101 at Fri Aug 23 16:08:45 2019, MaxMem=  2684354560 cpu:         0.6
 (Enter /soft/gaussian/09-e.01/g09/l103.exe)

 GradGradGradGradGradGradGradGradGradGradGradGradGradGradGradGradGradGrad
 Berny optimization.
 Initialization pass.
                       ----------------------------
                       !    Initial Parameters    !
                       ! (Angstroms and Degrees)  !
 ----------------------                            ----------------------
 !      Name          Value   Derivative information (Atomic Units)     !
 ------------------------------------------------------------------------
 !       R1          1.0922   estimate D2E/DX2                          !
 !       R2          1.0922   estimate D2E/DX2                          !
 !       A2        109.4712   estimate D2E/DX2                          !
 !       R3          1.0922   estimate D2E/DX2                          !
 !       A3        109.4712   estimate D2E/DX2                          !
 !       D3        120.0      estimate D2E/DX2                          !
 !       R4          1.0922   estimate D2E/DX2                          !
 !       A4        109.4712   estimate D2E/DX2                          !
 !       D4        240.0      estimate D2E/DX2                          !
 !       D6        180.0      estimate D2E/DX2                          !
 !       A6         85.0      estimate D2E/DX2                          !
 !       R5          1.0      Frozen                                    !
 !       A5         90.0      Frozen                                    !
 !       D5        180.0      Frozen                                    !
 !       R6          1.4543   Frozen                                    !
 ------------------------------------------------------------------------
 Trust Radius=3.00D-01 FncErr=1.00D-07 GrdErr=1.00D-06
 Number of steps in this run=     25 maximum allowed number of steps=    100.
 GradGradGradGradGradGradGradGradGradGradGradGradGradGradGradGradGradGrad

 Leave Link  103 at Fri Aug 23 16:08:45 2019, MaxMem=  2684354560 cpu:         0.1
 (Enter /soft/gaussian/09-e.01/g09/l202.exe)
 ---------------------------------------------------------------------------------------------------
                            Z-MATRIX (ANGSTROMS AND DEGREES)
   CD    Cent   Atom    N1       Length/X        N2       Alpha/Y        N3        Beta/Z          J
 ---------------------------------------------------------------------------------------------------
      1      1  C 
      2      2  H        1   1.092201(     1)
      3      3  H        1   1.092201(     2)      2  109.471(     7)
      4      4  H        1   1.092201(     3)      2  109.471(     8)      3  120.000(    12)      0
      5      5  H        1   1.092201(     4)      2  109.471(     9)      3  240.000(    13)      0
      6         X        5   1.000000(     5)      1   90.000(    10)      2  180.000(    14)      0
      7      6  H        5   1.454286(     6)      6   85.000(    11)      1  180.000(    15)      0
 ---------------------------------------------------------------------------------------------------
                         Z-Matrix orientation:                         
 ---------------------------------------------------------------------
 Center     Atomic      Atomic             Coordinates (Angstroms)
 Number     Number       Type             X           Y           Z
 ---------------------------------------------------------------------
      1          6           0        0.000000    0.000000    0.000000
      2          1           0        0.000000    0.000000    1.092201
      3          1           0        1.029737    0.000000   -0.364067
      4          1           0       -0.514868   -0.891778   -0.364067
      5          1           0       -0.514868    0.891778   -0.364067
      6         -1           0       -0.348202    0.603103   -1.306876
      7          1           0       -1.176692    2.038090   -0.966485
 ---------------------------------------------------------------------
                    Distance matrix (angstroms):
                    1          2          3          4          5
     1  C    0.000000
     2  H    1.092201   0.000000
     3  H    1.092201   1.783557   0.000000
     4  H    1.092201   1.783557   1.783557   0.000000
     5  H    1.092201   1.783557   1.783557   1.783557   0.000000
     6  X    1.480845   2.498109   1.775201   1.775201   1.000000
     7  H    2.544112   3.126756   3.063502   3.063502   1.454286
                    6          7
     6  X    0.000000
     7  H    1.691582   0.000000
 This structure is nearly, but not quite of a higher symmetry.
 Consider Symm=Loose if the higher symmetry is desired.
 Stoichiometry    CH5(2)
 Framework group  C1[X(CH5)]
 Deg. of freedom    12
 Full point group                 C1      NOp   1
 Largest Abelian subgroup         C1      NOp   1
 Largest concise Abelian subgroup C1      NOp   1
                         Standard orientation:                         
 ---------------------------------------------------------------------
 Center     Atomic      Atomic             Coordinates (Angstroms)
 Number     Number       Type             X           Y           Z
 ---------------------------------------------------------------------
      1          6           0       -0.213813   -0.019687   -0.085954
      2          1           0       -0.627298    0.943030   -0.394353
      3          1           0       -0.849466   -0.458334    0.686340
      4          1           0       -0.171515   -0.690365   -0.946944
      5          1           0        0.793025    0.126920    0.311142
      6          1           0        2.138134    0.196873    0.859538
 ---------------------------------------------------------------------
 Rotational constants (GHZ):    157.6370072     54.0900346     54.0900346
 Leave Link  202 at Fri Aug 23 16:08:45 2019, MaxMem=  2684354560 cpu:         0.2
 (Enter /soft/gaussian/09-e.01/g09/l301.exe)
 Standard basis: 6-31G(d) (6D, 7F)
 Ernie: Thresh=  0.10000D-02 Tol=  0.10000D-05 Strict=F.
 There are    25 symmetry adapted cartesian basis functions of A   symmetry.
 There are    25 symmetry adapted basis functions of A   symmetry.
    25 basis functions,    48 primitive gaussians,    25 cartesian basis functions
     6 alpha electrons        5 beta electrons
       nuclear repulsion energy        15.5349064913 Hartrees.
 IExCor=  402 DFT=T Ex+Corr=B3LYP ExCW=0 ScaHFX=  0.200000
 ScaDFX=  0.800000  0.720000  1.000000  0.810000 ScalE2=  1.000000  1.000000
 IRadAn=      5 IRanWt=     -1 IRanGd=            0 ICorTp=0 IEmpDi=  4
 NAtoms=    6 NActive=    6 NUniq=    6 SFac= 1.00D+00 NAtFMM=   60 NAOKFM=F Big=F
 Integral buffers will be    131072 words long.
 Raffenetti 2 integral format.
 Two-electron integral symmetry is turned on.
 Leave Link  301 at Fri Aug 23 16:08:45 2019, MaxMem=  2684354560 cpu:         0.6
 (Enter /soft/gaussian/09-e.01/g09/l302.exe)
 NPDir=0 NMtPBC=     1 NCelOv=     1 NCel=       1 NClECP=     1 NCelD=      1
         NCelK=      1 NCelE2=     1 NClLst=     1 CellRange=     0.0.
 One-electron integrals computed using PRISM.
 NBasis=    25 RedAO= T EigKep=  1.39D-02  NBF=    25
 NBsUse=    25 1.00D-06 EigRej= -1.00D+00 NBFU=    25
 Precomputing XC quadrature grid using
 IXCGrd= 4 IRadAn=           5 IRanWt=          -1 IRanGd=           0 AccXCQ= 0.00D+00.
 Generated NRdTot=       0 NPtTot=           0 NUsed=           0 NTot=          32
 NSgBfM=    25    25    25    25    25 MxSgAt=     6 MxSgA2=     6.
 Leave Link  302 at Fri Aug 23 16:08:45 2019, MaxMem=  2684354560 cpu:         1.6
 (Enter /soft/gaussian/09-e.01/g09/l303.exe)
 DipDrv:  MaxL=1.
 Leave Link  303 at Fri Aug 23 16:08:45 2019, MaxMem=  2684354560 cpu:         0.2
 (Enter /soft/gaussian/09-e.01/g09/l401.exe)
 ExpMin= 1.61D-01 ExpMax= 3.05D+03 ExpMxC= 4.57D+02 IAcc=3 IRadAn=         5 AccDes= 0.00D+00
 Harris functional with IExCor=  402 and IRadAn=       5 diagonalized for initial guess.
 HarFok:  IExCor=  402 AccDes= 0.00D+00 IRadAn=         5 IDoV= 1 UseB2=F ITyADJ=14
 ICtDFT=  3500011 ScaDFX=  1.000000  1.000000  1.000000  1.000000
 FoFCou: FMM=F IPFlag=           0 FMFlag=      100000 FMFlg1=           0
         NFxFlg=           0 DoJE=T BraDBF=F KetDBF=T FulRan=T
         wScrn=  0.000000 ICntrl=     500 IOpCl=  0 I1Cent=   200000004 NGrid=           0
         NMat0=    1 NMatS0=      1 NMatT0=    0 NMatD0=    1 NMtDS0=    0 NMtDT0=    0
 Petite list used in FoFCou.
 Harris En= -41.0198819834362    
 JPrj=0 DoOrth=F DoCkMO=F.
 Initial guess <Sx>= 0.0000 <Sy>= 0.0000 <Sz>= 0.5000 <S**2>= 0.7500 S= 0.5000
 Leave Link  401 at Fri Aug 23 16:08:45 2019, MaxMem=  2684354560 cpu:         1.9
 (Enter /soft/gaussian/09-e.01/g09/l502.exe)
 UHF open shell SCF:
 Using DIIS extrapolation, IDIIS=  1040.
 Integral symmetry usage will be decided dynamically.
 Keep R1 and R2 ints in memory in canonical form, NReq=976418.
 IVT=        8268 IEndB=        8268 NGot=  2684354560 MDV=  2684240343
 LenX=  2684240343 LenY=  2684239277
 Requested convergence on RMS density matrix=1.00D-08 within  64 cycles.
 Requested convergence on MAX density matrix=1.00D-06.
 Requested convergence on             energy=1.00D-06.
 No special actions if energy rises.
 FoFCou: FMM=F IPFlag=           0 FMFlag=           0 FMFlg1=           0
         NFxFlg=           0 DoJE=F BraDBF=F KetDBF=F FulRan=T
         wScrn=  0.000000 ICntrl=     600 IOpCl=  0 I1Cent=           0 NGrid=           0
         NMat0=    1 NMatS0=    325 NMatT0=    0 NMatD0=    1 NMtDS0=    0 NMtDT0=    0
 Symmetry not used in FoFCou.
 Integral accuracy reduced to 1.0D-05 until final iterations.

 Cycle   1  Pass 0  IDiag  1:
 E= -40.9171074691434    
 DIIS: error= 7.10D-02 at cycle   1 NSaved=   1.
 NSaved= 1 IEnMin= 1 EnMin= -40.9171074691434     IErMin= 1 ErrMin= 7.10D-02
 ErrMax= 7.10D-02  0.00D+00 EMaxC= 1.00D-01 BMatC= 3.50D-01 BMatP= 3.50D-01
 IDIUse=3 WtCom= 2.90D-01 WtEn= 7.10D-01
 Coeff-Com:  0.100D+01
 Coeff-En:   0.100D+01
 Coeff:      0.100D+01
 Gap=     0.476 Goal=   None    Shift=    0.000
 Gap=     0.174 Goal=   None    Shift=    0.000
 GapD=    0.174 DampG=1.000 DampE=0.500 DampFc=0.5000 IDamp=-1.
 Damping current iteration by 5.00D-01
 RMSDP=2.44D-02 MaxDP=1.86D-01              OVMax= 2.69D-01

 Cycle   2  Pass 0  IDiag  1:
 E= -40.9594960774625     Delta-E=       -0.042388608319 Rises=F Damp=T
 DIIS: error= 9.80D-03 at cycle   2 NSaved=   2.
 NSaved= 2 IEnMin= 2 EnMin= -40.9594960774625     IErMin= 2 ErrMin= 9.80D-03
 ErrMax= 9.80D-03  0.00D+00 EMaxC= 1.00D-01 BMatC= 9.90D-03 BMatP= 3.50D-01
 IDIUse=3 WtCom= 9.02D-01 WtEn= 9.80D-02
 Coeff-Com:  0.906D-01 0.909D+00
 Coeff-En:   0.153D+00 0.847D+00
 Coeff:      0.967D-01 0.903D+00
 Gap=     0.429 Goal=   None    Shift=    0.000
 Gap=     0.289 Goal=   None    Shift=    0.000
 RMSDP=3.16D-03 MaxDP=4.50D-02 DE=-4.24D-02 OVMax= 1.69D-01

 Cycle   3  Pass 0  IDiag  1:
 E= -41.0136759829894     Delta-E=       -0.054179905527 Rises=F Damp=F
 DIIS: error= 1.51D-03 at cycle   3 NSaved=   3.
 NSaved= 3 IEnMin= 3 EnMin= -41.0136759829894     IErMin= 3 ErrMin= 1.51D-03
 ErrMax= 1.51D-03  0.00D+00 EMaxC= 1.00D-01 BMatC= 1.01D-04 BMatP= 9.90D-03
 IDIUse=3 WtCom= 9.85D-01 WtEn= 1.51D-02
 Coeff-Com: -0.293D-02-0.539D-01 0.106D+01
 Coeff-En:   0.000D+00 0.000D+00 0.100D+01
 Coeff:     -0.289D-02-0.531D-01 0.106D+01
 Gap=     0.406 Goal=   None    Shift=    0.000
 Gap=     0.307 Goal=   None    Shift=    0.000
 RMSDP=6.74D-04 MaxDP=8.24D-03 DE=-5.42D-02 OVMax= 9.73D-03

 Cycle   4  Pass 0  IDiag  1:
 E= -41.0137606048020     Delta-E=       -0.000084621813 Rises=F Damp=F
 DIIS: error= 3.45D-04 at cycle   4 NSaved=   4.
 NSaved= 4 IEnMin= 4 EnMin= -41.0137606048020     IErMin= 4 ErrMin= 3.45D-04
 ErrMax= 3.45D-04  0.00D+00 EMaxC= 1.00D-01 BMatC= 5.55D-06 BMatP= 1.01D-04
 IDIUse=3 WtCom= 9.97D-01 WtEn= 3.45D-03
 Coeff-Com: -0.203D-02 0.464D-02-0.172D+00 0.117D+01
 Coeff-En:   0.000D+00 0.000D+00 0.000D+00 0.100D+01
 Coeff:     -0.203D-02 0.463D-02-0.171D+00 0.117D+01
 Gap=     0.406 Goal=   None    Shift=    0.000
 Gap=     0.308 Goal=   None    Shift=    0.000
 RMSDP=1.29D-04 MaxDP=1.31D-03 DE=-8.46D-05 OVMax= 2.69D-03

 Cycle   5  Pass 0  IDiag  1:
 E= -41.0137648121117     Delta-E=       -0.000004207310 Rises=F Damp=F
 DIIS: error= 6.10D-05 at cycle   5 NSaved=   5.
 NSaved= 5 IEnMin= 5 EnMin= -41.0137648121117     IErMin= 5 ErrMin= 6.10D-05
 ErrMax= 6.10D-05  0.00D+00 EMaxC= 1.00D-01 BMatC= 3.91D-07 BMatP= 5.55D-06
 IDIUse=1 WtCom= 1.00D+00 WtEn= 0.00D+00
 Coeff-Com: -0.629D-03 0.288D-02-0.708D-01 0.216D+00 0.853D+00
 Coeff:     -0.629D-03 0.288D-02-0.708D-01 0.216D+00 0.853D+00
 Gap=     0.406 Goal=   None    Shift=    0.000
 Gap=     0.308 Goal=   None    Shift=    0.000
 RMSDP=1.98D-05 MaxDP=1.97D-04 DE=-4.21D-06 OVMax= 2.38D-04

 Cycle   6  Pass 0  IDiag  1:
 E= -41.0137649551592     Delta-E=       -0.000000143048 Rises=F Damp=F
 DIIS: error= 9.79D-06 at cycle   6 NSaved=   6.
 NSaved= 6 IEnMin= 6 EnMin= -41.0137649551592     IErMin= 6 ErrMin= 9.79D-06
 ErrMax= 9.79D-06  0.00D+00 EMaxC= 1.00D-01 BMatC= 9.63D-09 BMatP= 3.91D-07
 IDIUse=1 WtCom= 1.00D+00 WtEn= 0.00D+00
 Coeff-Com:  0.243D-04-0.197D-03 0.641D-02-0.465D-01-0.338D-02 0.104D+01
 Coeff:      0.243D-04-0.197D-03 0.641D-02-0.465D-01-0.338D-02 0.104D+01
 Gap=     0.406 Goal=   None    Shift=    0.000
 Gap=     0.308 Goal=   None    Shift=    0.000
 RMSDP=4.04D-06 MaxDP=3.59D-05 DE=-1.43D-07 OVMax= 4.23D-05

 Initial convergence to 1.0D-05 achieved.  Increase integral accuracy.
 Cycle   7  Pass 1  IDiag  1:
 E= -41.0137645297611     Delta-E=        0.000000425398 Rises=F Damp=F
 DIIS: error= 2.75D-06 at cycle   1 NSaved=   1.
 NSaved= 1 IEnMin= 1 EnMin= -41.0137645297611     IErMin= 1 ErrMin= 2.75D-06
 ErrMax= 2.75D-06  0.00D+00 EMaxC= 1.00D-01 BMatC= 6.08D-10 BMatP= 6.08D-10
 IDIUse=1 WtCom= 1.00D+00 WtEn= 0.00D+00
 Coeff-Com:  0.100D+01
 Coeff:      0.100D+01
 Gap=     0.406 Goal=   None    Shift=    0.000
 Gap=     0.308 Goal=   None    Shift=    0.000
 RMSDP=4.04D-06 MaxDP=3.59D-05 DE= 4.25D-07 OVMax= 1.05D-05

 Cycle   8  Pass 1  IDiag  1:
 E= -41.0137645301019     Delta-E=       -0.000000000341 Rises=F Damp=F
 DIIS: error= 2.21D-06 at cycle   2 NSaved=   2.
 NSaved= 2 IEnMin= 2 EnMin= -41.0137645301019     IErMin= 2 ErrMin= 2.21D-06
 ErrMax= 2.21D-06  0.00D+00 EMaxC= 1.00D-01 BMatC= 2.27D-10 BMatP= 6.08D-10
 IDIUse=1 WtCom= 1.00D+00 WtEn= 0.00D+00
 Coeff-Com:  0.271D+00 0.729D+00
 Coeff:      0.271D+00 0.729D+00
 Gap=     0.406 Goal=   None    Shift=    0.000
 Gap=     0.308 Goal=   None    Shift=    0.000
 RMSDP=3.93D-07 MaxDP=3.77D-06 DE=-3.41D-10 OVMax= 6.69D-06

 Cycle   9  Pass 1  IDiag  1:
 E= -41.0137645301742     Delta-E=       -0.000000000072 Rises=F Damp=F
 DIIS: error= 1.35D-06 at cycle   3 NSaved=   3.
 NSaved= 3 IEnMin= 3 EnMin= -41.0137645301742     IErMin= 3 ErrMin= 1.35D-06
 ErrMax= 1.35D-06  0.00D+00 EMaxC= 1.00D-01 BMatC= 8.10D-11 BMatP= 2.27D-10
 IDIUse=1 WtCom= 1.00D+00 WtEn= 0.00D+00
 Coeff-Com: -0.210D+00 0.315D+00 0.895D+00
 Coeff:     -0.210D+00 0.315D+00 0.895D+00
 Gap=     0.406 Goal=   None    Shift=    0.000
 Gap=     0.308 Goal=   None    Shift=    0.000
 RMSDP=2.91D-07 MaxDP=2.62D-06 DE=-7.23D-11 OVMax= 3.45D-06

 Cycle  10  Pass 1  IDiag  1:
 E= -41.0137645302080     Delta-E=       -0.000000000034 Rises=F Damp=F
 DIIS: error= 2.12D-07 at cycle   4 NSaved=   4.
 NSaved= 4 IEnMin= 4 EnMin= -41.0137645302080     IErMin= 4 ErrMin= 2.12D-07
 ErrMax= 2.12D-07  0.00D+00 EMaxC= 1.00D-01 BMatC= 3.71D-12 BMatP= 8.10D-11
 IDIUse=1 WtCom= 1.00D+00 WtEn= 0.00D+00
 Coeff-Com: -0.897D-01-0.115D-02 0.200D+00 0.891D+00
 Coeff:     -0.897D-01-0.115D-02 0.200D+00 0.891D+00
 Gap=     0.406 Goal=   None    Shift=    0.000
 Gap=     0.308 Goal=   None    Shift=    0.000
 RMSDP=8.14D-08 MaxDP=5.97D-07 DE=-3.38D-11 OVMax= 9.33D-07

 Cycle  11  Pass 1  IDiag  1:
 E= -41.0137645302099     Delta-E=       -0.000000000002 Rises=F Damp=F
 DIIS: error= 3.36D-08 at cycle   5 NSaved=   5.
 NSaved= 5 IEnMin= 5 EnMin= -41.0137645302099     IErMin= 5 ErrMin= 3.36D-08
 ErrMax= 3.36D-08  0.00D+00 EMaxC= 1.00D-01 BMatC= 8.63D-14 BMatP= 3.71D-12
 IDIUse=1 WtCom= 1.00D+00 WtEn= 0.00D+00
 Coeff-Com:  0.143D-02-0.116D-01-0.270D-01 0.770D-01 0.960D+00
 Coeff:      0.143D-02-0.116D-01-0.270D-01 0.770D-01 0.960D+00
 Gap=     0.406 Goal=   None    Shift=    0.000
 Gap=     0.308 Goal=   None    Shift=    0.000
 RMSDP=1.02D-08 MaxDP=8.29D-08 DE=-1.95D-12 OVMax= 1.37D-07

 Cycle  12  Pass 1  IDiag  1:
 E= -41.0137645302100     Delta-E=       -0.000000000000 Rises=F Damp=F
 DIIS: error= 9.78D-09 at cycle   6 NSaved=   6.
 NSaved= 6 IEnMin= 6 EnMin= -41.0137645302100     IErMin= 6 ErrMin= 9.78D-09
 ErrMax= 9.78D-09  0.00D+00 EMaxC= 1.00D-01 BMatC= 2.79D-15 BMatP= 8.63D-14
 IDIUse=1 WtCom= 1.00D+00 WtEn= 0.00D+00
 Coeff-Com:  0.426D-02-0.108D-02-0.689D-02-0.385D-01-0.124D-01 0.105D+01
 Coeff:      0.426D-02-0.108D-02-0.689D-02-0.385D-01-0.124D-01 0.105D+01
 Gap=     0.406 Goal=   None    Shift=    0.000
 Gap=     0.308 Goal=   None    Shift=    0.000
 RMSDP=2.68D-09 MaxDP=2.99D-08 DE=-2.13D-14 OVMax= 3.10D-08

 SCF Done:  E(UB3LYP) =  -41.0137645302     A.U. after   12 cycles
            NFock= 12  Conv=0.27D-08     -V/T= 2.0095
 <Sx>= 0.0000 <Sy>= 0.0000 <Sz>= 0.5000 <S**2>= 0.7515 S= 0.5008
 <L.S>= 0.000000000000E+00
 KE= 4.062829849683D+01 PE=-1.250952966779D+02 EE= 2.791832715955D+01
 Annihilation of the first spin contaminant:
 S**2 before annihilation     0.7515,   after     0.7500
 Leave Link  502 at Fri Aug 23 16:08:46 2019, MaxMem=  2684354560 cpu:         9.2
 (Enter /soft/gaussian/09-e.01/g09/l508.exe)
 QCSCF skips out because SCF is already converged.
 Leave Link  508 at Fri Aug 23 16:08:46 2019, MaxMem=  2684354560 cpu:         0.0
 (Enter /soft/gaussian/09-e.01/g09/l601.exe)
 Copying SCF densities to generalized density rwf, IOpCl= 1 IROHF=0.

 **********************************************************************

            Population analysis using the SCF density.

 **********************************************************************

 Orbital symmetries:
 Alpha Orbitals:
       Occupied  (A) (A) (A) (A) (A) (A)
       Virtual   (A) (A) (A) (A) (A) (A) (A) (A) (A) (A) (A) (A)
                 (A) (A) (A) (A) (A) (A) (A)
 Beta  Orbitals:
       Occupied  (A) (A) (A) (A) (A)
       Virtual   (A) (A) (A) (A) (A) (A) (A) (A) (A) (A) (A) (A)
                 (A) (A) (A) (A) (A) (A) (A) (A)
 The electronic state is 2-A.
 Alpha  occ. eigenvalues --  -10.17127  -0.70024  -0.42765  -0.39436  -0.39433
 Alpha  occ. eigenvalues --   -0.28038
 Alpha virt. eigenvalues --    0.12593   0.17254   0.17262   0.24052   0.52857
 Alpha virt. eigenvalues --    0.52868   0.53399   0.73897   0.89345   0.89354
 Alpha virt. eigenvalues --    0.93844   0.97586   1.18440   1.64741   1.64761
 Alpha virt. eigenvalues --    2.23408   2.23813   2.23816   4.20476
  Beta  occ. eigenvalues --  -10.16871  -0.69381  -0.40265  -0.39273  -0.39270
  Beta virt. eigenvalues --   -0.08451   0.12869   0.17408   0.17414   0.25922
  Beta virt. eigenvalues --    0.52881   0.52883   0.54509   0.88264   0.89566
  Beta virt. eigenvalues --    0.89582   0.94283   0.98144   1.19717   1.65469
  Beta virt. eigenvalues --    1.65478   2.24200   2.24237   2.24270   4.21005
          Condensed to atoms (all electrons):
               1          2          3          4          5          6
     1  C    5.127365   0.381334   0.382682   0.382682   0.362646  -0.044139
     2  H    0.381334   0.535326  -0.026014  -0.026014  -0.026911   0.001295
     3  H    0.382682  -0.026014   0.535185  -0.026040  -0.028226   0.001337
     4  H    0.382682  -0.026014  -0.026040   0.535185  -0.028226   0.001337
     5  H    0.362646  -0.026911  -0.028226  -0.028226   0.579462   0.023882
     6  H   -0.044139   0.001295   0.001337   0.001337   0.023882   1.024228
          Atomic-Atomic Spin Densities.
               1          2          3          4          5          6
     1  C    0.189570  -0.007826  -0.007157  -0.007157   0.021676  -0.056639
     2  H   -0.007826   0.001069   0.001440   0.001440   0.000988   0.002101
     3  H   -0.007157   0.001440  -0.000632   0.001306   0.001146   0.002110
     4  H   -0.007157   0.001440   0.001306  -0.000632   0.001146   0.002110
     5  H    0.021676   0.000988   0.001146   0.001146  -0.056654  -0.020358
     6  H   -0.056639   0.002101   0.002110   0.002110  -0.020358   0.994627
 Mulliken charges and spin densities:
               1          2
     1  C   -0.592569   0.132466
     2  H    0.160983  -0.000787
     3  H    0.161076  -0.001787
     4  H    0.161076  -0.001787
     5  H    0.117374  -0.052056
     6  H   -0.007940   0.923952
 Sum of Mulliken charges =  -0.00000   1.00000
 Mulliken charges and spin densities with hydrogens summed into heavy atoms:
               1          2
     1  C   -0.000000   1.000000
 Electronic spatial extent (au):  <R**2>=             59.7804
 Charge=             -0.0000 electrons
 Dipole moment (field-independent basis, Debye):
    X=             -0.2679    Y=             -0.0280    Z=             -0.1072  Tot=              0.2899
 Quadrupole moment (field-independent basis, Debye-Ang):
   XX=            -10.1407   YY=             -9.4929   ZZ=             -9.5915
   XY=             -0.0654   XZ=             -0.2623   YZ=             -0.0262
 Traceless Quadrupole moment (field-independent basis, Debye-Ang):
   XX=             -0.3990   YY=              0.2488   ZZ=              0.1502
   XY=             -0.0654   XZ=             -0.2623   YZ=             -0.0262
 Octapole moment (field-independent basis, Debye-Ang**2):
  XXX=             -4.2040  YYY=              0.0603  ZZZ=             -1.4404  XYY=             -1.3624
  XXY=             -0.1631  XXZ=             -0.6008  XZZ=             -1.4402  YZZ=             -0.5617
  YYZ=             -0.7727  XYZ=              0.2241
 Hexadecapole moment (field-independent basis, Debye-Ang**3):
 XXXX=            -58.4763 YYYY=            -16.8678 ZZZZ=            -22.9267 XXXY=             -1.9560
 XXXZ=             -9.1429 YYYX=             -2.1755 YYYZ=             -0.8062 ZZZX=             -8.1176
 ZZZY=             -0.3940 XXYY=            -11.9575 XXZZ=            -13.4196 YYZZ=             -6.3313
 XXYZ=             -0.6454 YYXZ=             -2.4702 ZZXY=             -0.4540
 N-N= 1.553490649134D+01 E-N=-1.250952966032D+02  KE= 4.062829849683D+01
                          Isotropic Fermi Contact Couplings
        Atom                 a.u.       MegaHertz       Gauss      10(-4) cm-1
     1  C(13)              0.06503      73.11172      26.08808      24.38744
     2  H(1)              -0.00047      -2.09414      -0.74724      -0.69853
     3  H(1)              -0.00093      -4.13858      -1.47675      -1.38048
     4  H(1)              -0.00093      -4.13859      -1.47675      -1.38048
     5  H(1)              -0.00417     -18.62604      -6.64623      -6.21298
     6  H(1)               0.29173    1304.01442     465.30476     434.97239
 --------------------------------------------------------
       Center         ----  Spin Dipole Couplings  ----
                      3XX-RR        3YY-RR        3ZZ-RR
 --------------------------------------------------------
     1   Atom        0.134478     -0.082961     -0.051517
     2   Atom        0.004406      0.003885     -0.008291
     3   Atom        0.010589     -0.008839     -0.001749
     4   Atom        0.000163     -0.004241      0.004078
     5   Atom        0.090858     -0.056763     -0.034095
     6   Atom       -0.007543      0.004767      0.002777
 --------------------------------------------------------
                        XY            XZ            YZ
 --------------------------------------------------------
     1   Atom        0.028348      0.087604      0.011296
     2   Atom       -0.007228      0.007986     -0.005308
     3   Atom        0.007555     -0.004665     -0.005087
     4   Atom        0.002621      0.006684      0.011511
     5   Atom        0.013630      0.059934      0.005454
     6   Atom       -0.000754     -0.005024     -0.000306
 --------------------------------------------------------


 ---------------------------------------------------------------------------------
              Anisotropic Spin Dipole Couplings in Principal Axis System
 ---------------------------------------------------------------------------------

       Atom             a.u.   MegaHertz   Gauss  10(-4) cm-1        Axes

              Baa    -0.0866   -11.622    -4.147    -3.877 -0.0608  0.9844 -0.1651
     1 C(13)  Bbb    -0.0863   -11.577    -4.131    -3.862 -0.3801  0.1301  0.9157
              Bcc     0.1729    23.199     8.278     7.738  0.9229  0.1184  0.3663
 
              Baa    -0.0124    -6.595    -2.353    -2.200 -0.3801  0.1301  0.9157
     2 H(1)   Bbb    -0.0028    -1.512    -0.539    -0.504  0.6145  0.7755  0.1449
              Bcc     0.0152     8.107     2.893     2.704  0.6913 -0.6178  0.3747
 
              Baa    -0.0126    -6.716    -2.396    -2.240 -0.2320  0.9151  0.3297
     3 H(1)   Bbb    -0.0028    -1.490    -0.532    -0.497  0.4252 -0.2095  0.8805
              Bcc     0.0154     8.206     2.928     2.737  0.8748  0.3445 -0.3406
 
              Baa    -0.0126    -6.716    -2.396    -2.240  0.1551  0.7827 -0.6028
     4 H(1)   Bbb    -0.0028    -1.490    -0.532    -0.497  0.8946 -0.3701 -0.2503
              Bcc     0.0154     8.206     2.928     2.737  0.4190  0.5005  0.7576
 
              Baa    -0.0582   -31.052   -11.080   -10.358 -0.3801  0.1301  0.9157
     5 H(1)   Bbb    -0.0580   -30.949   -11.043   -10.323 -0.0291  0.9879 -0.1524
              Bcc     0.1162    62.001    22.123    20.681  0.9245  0.0846  0.3717
 
              Baa    -0.0096    -5.139    -1.834    -1.714  0.9249  0.0564  0.3759
     6 H(1)   Bbb     0.0048     2.568     0.916     0.857 -0.0028  0.9899 -0.1418
              Bcc     0.0048     2.571     0.917     0.858 -0.3801  0.1301  0.9157
 

 ---------------------------------------------------------------------------------

 No NMR shielding tensors so no spin-rotation constants.
 Leave Link  601 at Fri Aug 23 16:08:47 2019, MaxMem=  2684354560 cpu:         3.1
 (Enter /soft/gaussian/09-e.01/g09/l701.exe)
 Compute integral first derivatives.
 ... and contract with generalized density number  0.
 Leave Link  701 at Fri Aug 23 16:08:47 2019, MaxMem=  2684354560 cpu:         1.6
 (Enter /soft/gaussian/09-e.01/g09/l702.exe)
 L702 exits ... SP integral derivatives will be done elsewhere.
 Leave Link  702 at Fri Aug 23 16:08:47 2019, MaxMem=  2684354560 cpu:         0.2
 (Enter /soft/gaussian/09-e.01/g09/l703.exe)
 Compute integral first derivatives, UseDBF=F ICtDFT=           0.
 Integral derivatives from FoFJK, PRISM(SPDF).
 Calling FoFJK, ICntrl=      2127 FMM=F ISym2X=0 I1Cent= 0 IOpClX= 1 NMat=1 NMatS=1 NMatT=0.
 FoFJK:  IHMeth= 1 ICntrl=    2127 DoSepK=F KAlg= 0 I1Cent=   0 FoldK=F
 IRaf=         0 NMat=   1 IRICut=       1 DoRegI=T DoRafI=F ISym2E= 0.
 FoFCou: FMM=F IPFlag=           0 FMFlag=      100000 FMFlg1=         800
         NFxFlg=           0 DoJE=F BraDBF=F KetDBF=F FulRan=T
         wScrn=  0.000000 ICntrl=    2127 IOpCl=  1 I1Cent=           0 NGrid=           0
         NMat0=    1 NMatS0=      1 NMatT0=    0 NMatD0=    1 NMtDS0=    0 NMtDT0=    0
 Symmetry not used in FoFCou.
 Leave Link  703 at Fri Aug 23 16:08:47 2019, MaxMem=  2684354560 cpu:         2.3
 (Enter /soft/gaussian/09-e.01/g09/l716.exe)
 Dipole        =-1.05382030D-01-1.10278846D-02-4.21758832D-02
 ***** Axes restored to original set *****
 -------------------------------------------------------------------
 Center     Atomic                   Forces (Hartrees/Bohr)
 Number     Number              X              Y              Z
 -------------------------------------------------------------------
      1        6           0.007219275   -0.012504068    0.005536192
      2        1          -0.000486368    0.000842895    0.000904033
      3        1           0.000594101    0.000893836   -0.000780891
      4        1          -0.001071416   -0.000067385   -0.000780924
      5        1          -0.002507612    0.004343063   -0.001753674
      6        1          -0.003747980    0.006491659   -0.003124736
 -------------------------------------------------------------------
 Cartesian Forces:  Max     0.012504068 RMS     0.004337088
 -----------------------------------------------------------------------------------------------
                       Internal Coordinate Forces (Hartree/Bohr or radian)
  Cent   Atom   N1       Length/X         N2         Alpha/Y        N3         Beta/Z          J
 -----------------------------------------------------------------------------------------------
      1  C 
      2  H        1   0.000904(     1)
      3  H        1   0.000820(     2)      2   0.001111(     7)
      4  H        1   0.000820(     3)      2   0.001111(     8)      3   0.001740(    12)     0
      5  H        1   0.013422(     4)      2   0.000168(     9)      3  -0.000000(    13)     0
         X        5  -0.000000(     5)      1   0.000717(    10)      2   0.000000(    14)     0
      6  H        5   0.008117(     6)      6   0.000717(    11)      1   0.000000(    15)     0
 -----------------------------------------------------------------------------------------------
 Internal  Forces:  Max     0.013421565 RMS     0.004121003
 Force constants in Cartesian coordinates: 
                1             2             3             4             5 
      1  0.825227D+00
      2  0.904475D-01  0.720787D+00
      3 -0.615639D-02  0.106632D-01  0.699040D+00
      4 -0.719808D-01  0.248364D-02  0.000000D+00  0.572310D-01
      5  0.248364D-02 -0.748487D-01  0.000000D+00  0.263014D-03  0.569273D-01
      6  0.000000D+00  0.000000D+00 -0.345595D+00  0.000000D+00  0.000000D+00
      7 -0.317375D+00 -0.106167D-02  0.844459D-01  0.125683D-01  0.000000D+00
      8 -0.295122D-02 -0.781215D-01 -0.330629D-03  0.000000D+00  0.436532D-03
      9  0.798174D-01 -0.300286D-02 -0.106746D+00  0.355484D-01  0.000000D+00
     10 -0.139673D+00 -0.105548D+00 -0.419366D-01  0.346946D-02  0.525319D-02
     11 -0.103658D+00 -0.255824D+00 -0.732976D-01  0.525319D-02  0.953533D-02
     12 -0.373082D-01 -0.706254D-01 -0.106746D+00 -0.177742D-01 -0.307858D-01
     13 -0.416822D+00 -0.537149D-01 -0.308447D-01 -0.498889D-02 -0.101366D-01
     14 -0.537149D-01 -0.354797D+00  0.534245D-01 -0.101366D-01  0.671588D-02
     15 -0.320739D-01  0.555536D-01 -0.164158D+00 -0.177742D-01  0.307858D-01
     16  0.120624D+00  0.673934D-01 -0.550822D-02  0.370100D-02  0.213677D-02
     17  0.673934D-01  0.428045D-01  0.954052D-02  0.213677D-02  0.123367D-02
     18 -0.427899D-02  0.741142D-02  0.242056D-01  0.000000D+00  0.000000D+00
                6             7             8             9            10 
      6  0.345595D+00
      7  0.000000D+00  0.313555D+00
      8  0.000000D+00  0.876712D-04  0.569273D-01
      9  0.000000D+00 -0.906241D-01  0.247972D-03  0.892715D-01
     10  0.000000D+00 -0.520040D-02 -0.272741D-01 -0.147089D-01  0.121160D+00
     11  0.000000D+00  0.175106D-02  0.953533D-02  0.495276D-02  0.111167D+00
     12  0.000000D+00  0.306526D-02  0.152147D-01  0.866986D-02  0.450973D-01
     13  0.000000D+00 -0.231346D-02  0.322744D-01 -0.654345D-02  0.227108D-01
     14  0.000000D+00 -0.648063D-04  0.124560D-01 -0.183300D-03  0.178266D-01
     15  0.000000D+00  0.311298D-02 -0.151320D-01  0.880484D-02  0.115482D-01
     16  0.000000D+00 -0.123367D-02 -0.213677D-02 -0.348934D-02 -0.246733D-02
     17  0.000000D+00 -0.712258D-03 -0.123367D-02 -0.201457D-02 -0.142452D-02
     18  0.000000D+00  0.000000D+00  0.000000D+00  0.000000D+00  0.000000D+00
               11            12            13            14            15 
     11  0.249322D+00
     12  0.786068D-01  0.892715D-01
     13 -0.145126D-01  0.343047D-02  0.626553D+00
     14 -0.125683D-01  0.557514D-02  0.140770D+00  0.464006D+00
     15 -0.102619D-01  0.880484D-02  0.378867D-01 -0.656216D-01  0.199410D+00
     16  0.000000D+00  0.348934D-02 -0.225140D+00 -0.946802D-01 -0.269978D-02
     17  0.000000D+00  0.201457D-02 -0.946802D-01 -0.115813D+00  0.467616D-02
     18  0.000000D+00  0.000000D+00 -0.392902D-02  0.680526D-02 -0.528616D-01
               16            17            18 
     16  0.104517D+00
     17  0.272869D-01  0.730084D-01
     18  0.820801D-02 -0.142167D-01  0.286560D-01
 Force constants in internal coordinates: 
                1             2             3             4             5 
      1  0.345595D+00
      2  0.000000D+00  0.345595D+00
      3  0.000000D+00  0.000000D+00  0.345595D+00
      4  0.000000D+00  0.000000D+00  0.000000D+00  0.345595D+00
      5  0.000000D+00  0.000000D+00  0.000000D+00  0.000000D+00  0.000000D+00
      6  0.000000D+00  0.000000D+00  0.000000D+00  0.000000D+00  0.000000D+00
      7  0.000000D+00  0.000000D+00  0.000000D+00  0.000000D+00  0.000000D+00
      8  0.000000D+00  0.000000D+00  0.000000D+00  0.000000D+00  0.000000D+00
      9  0.000000D+00  0.000000D+00  0.000000D+00  0.000000D+00  0.000000D+00
     10  0.000000D+00  0.000000D+00  0.000000D+00  0.000000D+00  0.000000D+00
     11  0.000000D+00  0.000000D+00  0.000000D+00  0.000000D+00  0.000000D+00
     12  0.000000D+00  0.000000D+00  0.000000D+00  0.000000D+00  0.000000D+00
     13  0.000000D+00  0.000000D+00  0.000000D+00  0.000000D+00  0.000000D+00
     14  0.000000D+00  0.000000D+00  0.000000D+00  0.000000D+00  0.000000D+00
     15  0.000000D+00  0.000000D+00  0.000000D+00  0.000000D+00  0.000000D+00
                6             7             8             9            10 
      6  0.647256D-01
      7  0.000000D+00  0.243800D+00
      8  0.000000D+00  0.415497D-01  0.243800D+00
      9  0.000000D+00  0.421965D-01  0.421965D-01  0.242291D+00
     10  0.000000D+00  0.000000D+00  0.000000D+00  0.000000D+00  0.160000D+00
     11  0.000000D+00  0.000000D+00  0.000000D+00  0.000000D+00  0.160000D+00
     12  0.000000D+00 -0.648136D-01 -0.105634D-02  0.644615D-01  0.000000D+00
     13  0.000000D+00  0.637573D-01 -0.637573D-01  0.000000D+00  0.000000D+00
     14  0.000000D+00 -0.211268D-02  0.211268D-02  0.000000D+00  0.000000D+00
     15  0.000000D+00 -0.241481D-01  0.241481D-01  0.000000D+00  0.000000D+00
               11            12            13            14            15 
     11  0.160000D+00
     12  0.000000D+00  0.215561D+00
     13  0.000000D+00 -0.108068D+00  0.216136D+00
     14  0.000000D+00 -0.115000D-02  0.230000D-02  0.690000D-02
     15  0.000000D+00 -0.131446D-01  0.262891D-01  0.788674D-01  0.901458D+00
 Leave Link  716 at Fri Aug 23 16:08:47 2019, MaxMem=  2684354560 cpu:         0.2
 (Enter /soft/gaussian/09-e.01/g09/l103.exe)

 GradGradGradGradGradGradGradGradGradGradGradGradGradGradGradGradGradGrad
 Berny optimization.
 Search for a local minimum.
 Step number   1 out of a maximum of   25
 All quantities printed in internal units (Hartrees-Bohrs-Radians)
 Second derivative matrix not updated -- first step.
 The second derivative matrix:
                          R1        R2        A2        R3        A3
           R1           0.34560
           R2           0.00000   0.34560
           A2          -0.00000  -0.00000   0.24380
           R3           0.00000   0.00000   0.00000   0.34560
           A3          -0.00000  -0.00000   0.04155   0.00000   0.24380
           D3          -0.00000  -0.00000  -0.06481  -0.00000  -0.00106
           R4          -0.00000  -0.00000  -0.00000  -0.00000  -0.00000
           A4          -0.00000   0.00000   0.04220  -0.00000   0.04220
           D4          -0.00000   0.00000   0.06376  -0.00000  -0.06376
           D6          -0.00000  -0.00000  -0.02415   0.00000   0.02415
           A6           0.00000  -0.00000   0.00000   0.00000  -0.00000
           R5           0.00000   0.00000  -0.00000   0.00000  -0.00000
           A5           0.00000  -0.00000   0.00000   0.00000  -0.00000
           D5          -0.00000  -0.00000  -0.00211   0.00000   0.00211
           R6          -0.00000   0.00000  -0.00000  -0.00000   0.00000
                          D3        R4        A4        D4        D6
           D3           0.21556
           R4          -0.00000   0.34560
           A4           0.06446  -0.00000   0.24229
           D4          -0.10807   0.00000  -0.00000   0.21614
           D6          -0.01314  -0.00000   0.00000   0.02629   0.90146
           A6           0.00000  -0.00000  -0.00000   0.00000  -0.00000
           R5          -0.00000  -0.00000  -0.00000  -0.00000   0.00000
           A5           0.00000  -0.00000  -0.00000   0.00000  -0.00000
           D5          -0.00115  -0.00000   0.00000   0.00230   0.07887
           R6          -0.00000  -0.00000  -0.00000   0.00000  -0.00000
                          A6        R5        A5        D5        R6
           A6           0.16000
           R5           0.00000   0.00000
           A5           0.16000  -0.00000   0.16000
           D5          -0.00000   0.00000  -0.00000   0.00690
           R6           0.00000  -0.00000   0.00000   0.00000   0.06473
 ITU=  0
     Eigenvalues ---    0.07436   0.13417   0.16000   0.23378   0.32726
     Eigenvalues ---    0.34560   0.34560   0.34560   0.34560   0.38934
     Eigenvalues ---    0.904151000.000001000.000001000.000001000.00000
 RFO step:  Lambda=-5.70625487D-04 EMin= 7.43553518D-02
 Linear search not attempted -- first point.
 Variable       Old X    -DE/DX   Delta X   Delta X   Delta X     New X
                                 (Linear)    (Quad)   (Total)
    R1        2.06396   0.00090   0.00000   0.00261   0.00261   2.06657
    R2        2.06396   0.00082   0.00000   0.00237   0.00237   2.06633
    A2        1.91063   0.00111   0.00000   0.00654   0.00654   1.91718
    R3        2.06396   0.00082   0.00000   0.00237   0.00237   2.06633
    A3        1.91063   0.00111   0.00000   0.00653   0.00653   1.91716
    D3        2.09440   0.00174   0.00000   0.01565   0.01565   2.11005
    R4        2.06396   0.01342   0.00000   0.03877   0.03877   2.10273
    A4        1.91063   0.00017   0.00000  -0.00573  -0.00573   1.90490
    D4        4.18879  -0.00000   0.00000   0.00780   0.00780   4.19659
    D6        3.14159   0.00000   0.00000   0.00000   0.00000   3.14159
    A6        1.48353   0.00072   0.00000   0.00447   0.00447   1.48800
    R5        1.88973  -0.00000   0.00000   0.00000   0.00000   1.88973
    A5        1.57080   0.00072   0.00000   0.00000   0.00000   1.57080
    D5        3.14159   0.00000   0.00000   0.00000   0.00000   3.14159
    R6        2.74820   0.00812   0.00000   0.00000   0.00000   2.74820
         Item               Value     Threshold  Converged?
 Maximum Force            0.013422     0.000450     NO 
 RMS     Force            0.004138     0.000300     NO 
 Maximum Displacement     0.038772     0.001800     NO 
 RMS     Displacement     0.011447     0.001200     NO 
 Predicted change in Energy=-2.858746D-04
 Lowest energy point so far.  Saving SCF results.
 GradGradGradGradGradGradGradGradGradGradGradGradGradGradGradGradGradGrad

 Leave Link  103 at Fri Aug 23 16:08:47 2019, MaxMem=  2684354560 cpu:         0.1
 (Enter /soft/gaussian/09-e.01/g09/l202.exe)
 ---------------------------------------------------------------------------------------------------
                            Z-MATRIX (ANGSTROMS AND DEGREES)
   CD    Cent   Atom    N1       Length/X        N2       Alpha/Y        N3        Beta/Z          J
 ---------------------------------------------------------------------------------------------------
      1      1  C 
      2      2  H        1   1.093583(     1)
      3      3  H        1   1.093455(     2)      2  109.846(     7)
      4      4  H        1   1.093455(     3)      2  109.845(     8)      3  120.897(    12)      0
      5      5  H        1   1.112718(     4)      2  109.143(     9)      3  240.447(    13)      0
      6         X        5   1.000000(     5)      1   90.000(    10)      2  180.000(    14)      0
      7      6  H        5   1.454286(     6)      6   85.256(    11)      1  180.000(    15)      0
 ---------------------------------------------------------------------------------------------------
                         Z-Matrix orientation:                         
 ---------------------------------------------------------------------
 Center     Atomic      Atomic             Coordinates (Angstroms)
 Number     Number       Type             X           Y           Z
 ---------------------------------------------------------------------
      1          6           0        0.000000    0.000000    0.000000
      2          1           0        0.000000    0.000000    1.093583
      3          1           0        1.028512    0.000000   -0.371223
      4          1           0       -0.528140   -0.882564   -0.371205
      5          1           0       -0.518478    0.914429   -0.364885
      6         -1           0       -0.356737    0.629170   -1.309590
      7          1           0       -1.174339    2.071153   -0.953769
 ---------------------------------------------------------------------
                    Distance matrix (angstroms):
                    1          2          3          4          5
     1  C    0.000000
     2  H    1.093583   0.000000
     3  H    1.093455   1.789831   0.000000
     4  H    1.093455   1.789820   1.789437   0.000000
     5  H    1.112718   1.797813   1.797053   1.797030   0.000000
     6  X    1.496042   2.509653   1.787541   1.787536   1.000000
     7  H    2.564844   3.140127   3.079219   3.079188   1.454286
                    6          7
     6  X    0.000000
     7  H    1.695405   0.000000
 Stoichiometry    CH5(2)
 Framework group  C1[X(CH5)]
 Deg. of freedom    12
 Full point group                 C1      NOp   1
 RotChk:  IX=2 Diff= 6.03D-01
 Largest Abelian subgroup         C1      NOp   1
 Largest concise Abelian subgroup C1      NOp   1
                         Standard orientation:                         
 ---------------------------------------------------------------------
 Center     Atomic      Atomic             Coordinates (Angstroms)
 Number     Number       Type             X           Y           Z
 ---------------------------------------------------------------------
      1          6           0       -0.236725   -0.000083    0.000001
      2          1           0       -0.643399    1.014980    0.013696
      3          1           0       -0.569591   -0.545353    0.887427
      4          1           0       -0.569550   -0.521179   -0.901847
      5          1           0        0.874769    0.052104    0.000709
      6          1           0        2.328119   -0.000054    0.000007
 ---------------------------------------------------------------------
 Rotational constants (GHZ):    156.5589578     53.3418592     53.3367893
 Leave Link  202 at Fri Aug 23 16:08:47 2019, MaxMem=  2684354560 cpu:         0.1
 (Enter /soft/gaussian/09-e.01/g09/l301.exe)
 Standard basis: 6-31G(d) (6D, 7F)
 Ernie: Thresh=  0.10000D-02 Tol=  0.10000D-05 Strict=F.
 There are    25 symmetry adapted cartesian basis functions of A   symmetry.
 There are    25 symmetry adapted basis functions of A   symmetry.
    25 basis functions,    48 primitive gaussians,    25 cartesian basis functions
     6 alpha electrons        5 beta electrons
       nuclear repulsion energy        15.4485332421 Hartrees.
 IExCor=  402 DFT=T Ex+Corr=B3LYP ExCW=0 ScaHFX=  0.200000
 ScaDFX=  0.800000  0.720000  1.000000  0.810000 ScalE2=  1.000000  1.000000
 IRadAn=      5 IRanWt=     -1 IRanGd=            0 ICorTp=0 IEmpDi=  4
 NAtoms=    6 NActive=    6 NUniq=    6 SFac= 1.00D+00 NAtFMM=   60 NAOKFM=F Big=F
 Integral buffers will be    131072 words long.
 Raffenetti 2 integral format.
 Two-electron integral symmetry is turned on.
 Leave Link  301 at Fri Aug 23 16:08:47 2019, MaxMem=  2684354560 cpu:         0.5
 (Enter /soft/gaussian/09-e.01/g09/l302.exe)
 NPDir=0 NMtPBC=     1 NCelOv=     1 NCel=       1 NClECP=     1 NCelD=      1
         NCelK=      1 NCelE2=     1 NClLst=     1 CellRange=     0.0.
 One-electron integrals computed using PRISM.
 NBasis=    25 RedAO= T EigKep=  1.44D-02  NBF=    25
 NBsUse=    25 1.00D-06 EigRej= -1.00D+00 NBFU=    25
 Precomputing XC quadrature grid using
 IXCGrd= 4 IRadAn=           5 IRanWt=          -1 IRanGd=           0 AccXCQ= 0.00D+00.
 Generated NRdTot=       0 NPtTot=           0 NUsed=           0 NTot=          32
 NSgBfM=    25    25    25    25    25 MxSgAt=     6 MxSgA2=     6.
 Leave Link  302 at Fri Aug 23 16:08:48 2019, MaxMem=  2684354560 cpu:         1.6
 (Enter /soft/gaussian/09-e.01/g09/l303.exe)
 DipDrv:  MaxL=1.
 Leave Link  303 at Fri Aug 23 16:08:48 2019, MaxMem=  2684354560 cpu:         1.0
 (Enter /soft/gaussian/09-e.01/g09/l401.exe)
 Initial guess from the checkpoint file:  "/blues/gpfs/home/elliott/Packages/PACC/moldriver/rcdriver/rundir/RXN/CH3.H2/MDUSDFXREFXETQ/0_0/2_1/UHFFFAOYSA-N/CH4.H/HXBDELFRWIQQII/0_0/1_2/UHFFFAOYSA-N/2/ezvlpJU/SCANS/R6/05/RUN/OPTI/A00/Gau-42997.chk"
 B after Tr=     0.000000   -0.000000   -0.000000
         Rot=    0.977748   -0.078939   -0.192273    0.028448 Ang= -24.22 deg.
 Guess basis will be translated and rotated to current coordinates.
 JPrj=2 DoOrth=T DoCkMO=T.
 Initial guess <Sx>= 0.0000 <Sy>= 0.0000 <Sz>= 0.5000 <S**2>= 0.7516 S= 0.5008
 Generating alternative initial guess.
 ExpMin= 1.61D-01 ExpMax= 3.05D+03 ExpMxC= 4.57D+02 IAcc=2 IRadAn=         4 AccDes= 0.00D+00
 Harris functional with IExCor=  402 and IRadAn=       4 diagonalized for initial guess.
 HarFok:  IExCor=  402 AccDes= 0.00D+00 IRadAn=         4 IDoV= 1 UseB2=F ITyADJ=14
 ICtDFT=  3500011 ScaDFX=  1.000000  1.000000  1.000000  1.000000
 FoFCou: FMM=F IPFlag=           0 FMFlag=      100000 FMFlg1=           0
         NFxFlg=           0 DoJE=T BraDBF=F KetDBF=T FulRan=T
         wScrn=  0.000000 ICntrl=     500 IOpCl=  0 I1Cent=   200000004 NGrid=           0
         NMat0=    1 NMatS0=      1 NMatT0=    0 NMatD0=    1 NMtDS0=    0 NMtDT0=    0
 Petite list used in FoFCou.
 Harris En= -41.0182362434929    
 Leave Link  401 at Fri Aug 23 16:08:48 2019, MaxMem=  2684354560 cpu:         2.3
 (Enter /soft/gaussian/09-e.01/g09/l502.exe)
 UHF open shell SCF:
 Using DIIS extrapolation, IDIIS=  1040.
 Integral symmetry usage will be decided dynamically.
 Keep R1 and R2 ints in memory in canonical form, NReq=976418.
 IVT=        8268 IEndB=        8268 NGot=  2684354560 MDV=  2684240343
 LenX=  2684240343 LenY=  2684239277
 Requested convergence on RMS density matrix=1.00D-08 within  64 cycles.
 Requested convergence on MAX density matrix=1.00D-06.
 Requested convergence on             energy=1.00D-06.
 No special actions if energy rises.
 FoFCou: FMM=F IPFlag=           0 FMFlag=           0 FMFlg1=           0
         NFxFlg=           0 DoJE=F BraDBF=F KetDBF=F FulRan=T
         wScrn=  0.000000 ICntrl=     600 IOpCl=  0 I1Cent=           0 NGrid=           0
         NMat0=    1 NMatS0=    325 NMatT0=    0 NMatD0=    1 NMtDS0=    0 NMtDT0=    0
 Symmetry not used in FoFCou.
 Integral accuracy reduced to 1.0D-05 until final iterations.

 Cycle   1  Pass 0  IDiag  1:
 E= -41.0140059294336    
 DIIS: error= 1.74D-03 at cycle   1 NSaved=   1.
 NSaved= 1 IEnMin= 1 EnMin= -41.0140059294336     IErMin= 1 ErrMin= 1.74D-03
 ErrMax= 1.74D-03  0.00D+00 EMaxC= 1.00D-01 BMatC= 1.65D-04 BMatP= 1.65D-04
 IDIUse=3 WtCom= 9.83D-01 WtEn= 1.74D-02
 Coeff-Com:  0.100D+01
 Coeff-En:   0.100D+01
 Coeff:      0.100D+01
 Gap=     2.097 Goal=   None    Shift=    0.000
 Gap=     2.008 Goal=   None    Shift=    0.000
 GapD=    2.008 DampG=2.000 DampE=1.000 DampFc=2.0000 IDamp=-1.
 RMSDP=4.10D-04 MaxDP=4.45D-03              OVMax= 8.61D-03

 Cycle   2  Pass 0  IDiag  1:
 E= -41.0140625182180     Delta-E=       -0.000056588784 Rises=F Damp=F
 DIIS: error= 1.02D-03 at cycle   2 NSaved=   2.
 NSaved= 2 IEnMin= 2 EnMin= -41.0140625182180     IErMin= 2 ErrMin= 1.02D-03
 ErrMax= 1.02D-03  0.00D+00 EMaxC= 1.00D-01 BMatC= 7.10D-05 BMatP= 1.65D-04
 IDIUse=3 WtCom= 9.90D-01 WtEn= 1.02D-02
 Coeff-Com:  0.360D+00 0.640D+00
 Coeff-En:   0.000D+00 0.100D+01
 Coeff:      0.356D+00 0.644D+00
 Gap=     0.405 Goal=   None    Shift=    0.000
 Gap=     0.308 Goal=   None    Shift=    0.000
 RMSDP=2.10D-04 MaxDP=1.56D-03 DE=-5.66D-05 OVMax= 1.88D-03

 Cycle   3  Pass 0  IDiag  1:
 E= -41.0140779403130     Delta-E=       -0.000015422095 Rises=F Damp=F
 DIIS: error= 4.16D-04 at cycle   3 NSaved=   3.
 NSaved= 3 IEnMin= 3 EnMin= -41.0140779403130     IErMin= 3 ErrMin= 4.16D-04
 ErrMax= 4.16D-04  0.00D+00 EMaxC= 1.00D-01 BMatC= 1.27D-05 BMatP= 7.10D-05
 IDIUse=3 WtCom= 9.96D-01 WtEn= 4.16D-03
 Coeff-Com: -0.181D-02 0.291D+00 0.711D+00
 Coeff-En:   0.000D+00 0.107D+00 0.893D+00
 Coeff:     -0.180D-02 0.290D+00 0.712D+00
 Gap=     0.404 Goal=   None    Shift=    0.000
 Gap=     0.308 Goal=   None    Shift=    0.000
 RMSDP=5.67D-05 MaxDP=6.58D-04 DE=-1.54D-05 OVMax= 1.04D-03

 Cycle   4  Pass 0  IDiag  1:
 E= -41.0140812771914     Delta-E=       -0.000003336878 Rises=F Damp=F
 DIIS: error= 4.23D-05 at cycle   4 NSaved=   4.
 NSaved= 4 IEnMin= 4 EnMin= -41.0140812771914     IErMin= 4 ErrMin= 4.23D-05
 ErrMax= 4.23D-05  0.00D+00 EMaxC= 1.00D-01 BMatC= 8.43D-08 BMatP= 1.27D-05
 IDIUse=1 WtCom= 1.00D+00 WtEn= 0.00D+00
 Coeff-Com: -0.704D-02 0.244D-01 0.101D+00 0.881D+00
 Coeff:     -0.704D-02 0.244D-01 0.101D+00 0.881D+00
 Gap=     0.404 Goal=   None    Shift=    0.000
 Gap=     0.308 Goal=   None    Shift=    0.000
 RMSDP=9.80D-06 MaxDP=8.67D-05 DE=-3.34D-06 OVMax= 1.34D-04

 Initial convergence to 1.0D-05 achieved.  Increase integral accuracy.
 Cycle   5  Pass 1  IDiag  1:
 E= -41.0140801630989     Delta-E=        0.000001114092 Rises=F Damp=F
 DIIS: error= 1.30D-05 at cycle   1 NSaved=   1.
 NSaved= 1 IEnMin= 1 EnMin= -41.0140801630989     IErMin= 1 ErrMin= 1.30D-05
 ErrMax= 1.30D-05  0.00D+00 EMaxC= 1.00D-01 BMatC= 7.66D-09 BMatP= 7.66D-09
 IDIUse=1 WtCom= 1.00D+00 WtEn= 0.00D+00
 Coeff-Com:  0.100D+01
 Coeff:      0.100D+01
 Gap=     0.404 Goal=   None    Shift=    0.000
 Gap=     0.308 Goal=   None    Shift=    0.000
 RMSDP=9.80D-06 MaxDP=8.67D-05 DE= 1.11D-06 OVMax= 6.97D-05

 Cycle   6  Pass 1  IDiag  1:
 E= -41.0140801682486     Delta-E=       -0.000000005150 Rises=F Damp=F
 DIIS: error= 4.69D-06 at cycle   2 NSaved=   2.
 NSaved= 2 IEnMin= 2 EnMin= -41.0140801682486     IErMin= 2 ErrMin= 4.69D-06
 ErrMax= 4.69D-06  0.00D+00 EMaxC= 1.00D-01 BMatC= 1.32D-09 BMatP= 7.66D-09
 IDIUse=1 WtCom= 1.00D+00 WtEn= 0.00D+00
 Coeff-Com:  0.610D-01 0.939D+00
 Coeff:      0.610D-01 0.939D+00
 Gap=     0.404 Goal=   None    Shift=    0.000
 Gap=     0.308 Goal=   None    Shift=    0.000
 RMSDP=1.38D-06 MaxDP=1.20D-05 DE=-5.15D-09 OVMax= 2.08D-05

 Cycle   7  Pass 1  IDiag  1:
 E= -41.0140801690265     Delta-E=       -0.000000000778 Rises=F Damp=F
 DIIS: error= 2.14D-06 at cycle   3 NSaved=   3.
 NSaved= 3 IEnMin= 3 EnMin= -41.0140801690265     IErMin= 3 ErrMin= 2.14D-06
 ErrMax= 2.14D-06  0.00D+00 EMaxC= 1.00D-01 BMatC= 3.36D-10 BMatP= 1.32D-09
 IDIUse=1 WtCom= 1.00D+00 WtEn= 0.00D+00
 Coeff-Com: -0.195D+00 0.122D+00 0.107D+01
 Coeff:     -0.195D+00 0.122D+00 0.107D+01
 Gap=     0.404 Goal=   None    Shift=    0.000
 Gap=     0.308 Goal=   None    Shift=    0.000
 RMSDP=9.91D-07 MaxDP=9.32D-06 DE=-7.78D-10 OVMax= 1.06D-05

 Cycle   8  Pass 1  IDiag  1:
 E= -41.0140801691973     Delta-E=       -0.000000000171 Rises=F Damp=F
 DIIS: error= 1.40D-06 at cycle   4 NSaved=   4.
 NSaved= 4 IEnMin= 4 EnMin= -41.0140801691973     IErMin= 4 ErrMin= 1.40D-06
 ErrMax= 1.40D-06  0.00D+00 EMaxC= 1.00D-01 BMatC= 1.11D-10 BMatP= 3.36D-10
 IDIUse=1 WtCom= 1.00D+00 WtEn= 0.00D+00
 Coeff-Com: -0.108D+00-0.459D-02 0.592D+00 0.521D+00
 Coeff:     -0.108D+00-0.459D-02 0.592D+00 0.521D+00
 Gap=     0.404 Goal=   None    Shift=    0.000
 Gap=     0.308 Goal=   None    Shift=    0.000
 RMSDP=1.79D-07 MaxDP=1.97D-06 DE=-1.71D-10 OVMax= 3.24D-06

 Cycle   9  Pass 1  IDiag  1:
 E= -41.0140801692275     Delta-E=       -0.000000000030 Rises=F Damp=F
 DIIS: error= 9.11D-08 at cycle   5 NSaved=   5.
 NSaved= 5 IEnMin= 5 EnMin= -41.0140801692275     IErMin= 5 ErrMin= 9.11D-08
 ErrMax= 9.11D-08  0.00D+00 EMaxC= 1.00D-01 BMatC= 7.16D-13 BMatP= 1.11D-10
 IDIUse=1 WtCom= 1.00D+00 WtEn= 0.00D+00
 Coeff-Com:  0.551D-01-0.452D-02-0.294D+00-0.248D+00 0.149D+01
 Coeff:      0.551D-01-0.452D-02-0.294D+00-0.248D+00 0.149D+01
 Gap=     0.404 Goal=   None    Shift=    0.000
 Gap=     0.308 Goal=   None    Shift=    0.000
 RMSDP=5.54D-08 MaxDP=3.98D-07 DE=-3.01D-11 OVMax= 6.96D-07

 Cycle  10  Pass 1  IDiag  1:
 E= -41.0140801692281     Delta-E=       -0.000000000001 Rises=F Damp=F
 DIIS: error= 1.21D-08 at cycle   6 NSaved=   6.
 NSaved= 6 IEnMin= 6 EnMin= -41.0140801692281     IErMin= 6 ErrMin= 1.21D-08
 ErrMax= 1.21D-08  0.00D+00 EMaxC= 1.00D-01 BMatC= 8.11D-15 BMatP= 7.16D-13
 IDIUse=1 WtCom= 1.00D+00 WtEn= 0.00D+00
 Coeff-Com: -0.279D-02 0.135D-03 0.135D-01 0.165D-01-0.115D+00 0.109D+01
 Coeff:     -0.279D-02 0.135D-03 0.135D-01 0.165D-01-0.115D+00 0.109D+01
 Gap=     0.404 Goal=   None    Shift=    0.000
 Gap=     0.308 Goal=   None    Shift=    0.000
 RMSDP=4.54D-09 MaxDP=3.82D-08 DE=-6.68D-13 OVMax= 3.85D-08

 SCF Done:  E(UB3LYP) =  -41.0140801692     A.U. after   10 cycles
            NFock= 10  Conv=0.45D-08     -V/T= 2.0103
 <Sx>= 0.0000 <Sy>= 0.0000 <Sz>= 0.5000 <S**2>= 0.7517 S= 0.5008
 <L.S>= 0.000000000000E+00
 KE= 4.059674284977D+01 PE=-1.249008064255D+02 EE= 2.784145016439D+01
 Annihilation of the first spin contaminant:
 S**2 before annihilation     0.7517,   after     0.7500
 Leave Link  502 at Fri Aug 23 16:08:49 2019, MaxMem=  2684354560 cpu:         5.9
 (Enter /soft/gaussian/09-e.01/g09/l508.exe)
 QCSCF skips out because SCF is already converged.
 Leave Link  508 at Fri Aug 23 16:08:49 2019, MaxMem=  2684354560 cpu:         0.0
 (Enter /soft/gaussian/09-e.01/g09/l701.exe)
 Compute integral first derivatives.
 ... and contract with generalized density number  0.
 Leave Link  701 at Fri Aug 23 16:08:49 2019, MaxMem=  2684354560 cpu:         1.6
 (Enter /soft/gaussian/09-e.01/g09/l702.exe)
 L702 exits ... SP integral derivatives will be done elsewhere.
 Leave Link  702 at Fri Aug 23 16:08:49 2019, MaxMem=  2684354560 cpu:         0.1
 (Enter /soft/gaussian/09-e.01/g09/l703.exe)
 Compute integral first derivatives, UseDBF=F ICtDFT=           0.
 Integral derivatives from FoFJK, PRISM(SPDF).
 Calling FoFJK, ICntrl=      2127 FMM=F ISym2X=0 I1Cent= 0 IOpClX= 1 NMat=1 NMatS=1 NMatT=0.
 FoFJK:  IHMeth= 1 ICntrl=    2127 DoSepK=F KAlg= 0 I1Cent=   0 FoldK=F
 IRaf=         0 NMat=   1 IRICut=       1 DoRegI=T DoRafI=F ISym2E= 0.
 FoFCou: FMM=F IPFlag=           0 FMFlag=      100000 FMFlg1=         800
         NFxFlg=           0 DoJE=F BraDBF=F KetDBF=F FulRan=T
         wScrn=  0.000000 ICntrl=    2127 IOpCl=  1 I1Cent=           0 NGrid=           0
         NMat0=    1 NMatS0=      1 NMatT0=    0 NMatD0=    1 NMtDS0=    0 NMtDT0=    0
 Symmetry not used in FoFCou.
 Leave Link  703 at Fri Aug 23 16:08:49 2019, MaxMem=  2684354560 cpu:         2.2
 (Enter /soft/gaussian/09-e.01/g09/l716.exe)
 Dipole        =-1.17929368D-01-1.61153837D-03-2.66868734D-05
 ***** Axes restored to original set *****
 -------------------------------------------------------------------
 Center     Atomic                   Forces (Hartrees/Bohr)
 Number     Number              X              Y              Z
 -------------------------------------------------------------------
      1        6           0.001352931   -0.002392293    0.001330584
      2        1          -0.000273784    0.000484721   -0.000237616
      3        1          -0.000289813    0.000503003   -0.000189700
      4        1          -0.000281570    0.000505239   -0.000189806
      5        1           0.002785617   -0.004909103    0.001973758
      6        1          -0.003293382    0.005808433   -0.002687220
 -------------------------------------------------------------------
 Cartesian Forces:  Max     0.005808433 RMS     0.002333262
 -----------------------------------------------------------------------------------------------
                       Internal Coordinate Forces (Hartree/Bohr or radian)
  Cent   Atom   N1       Length/X         N2         Alpha/Y        N3         Beta/Z          J
 -----------------------------------------------------------------------------------------------
      1  C 
      2  H        1  -0.000238(     1)
      3  H        1  -0.000208(     2)      2   0.000572(     7)
      4  H        1  -0.000207(     3)      2   0.000572(     8)      3   0.000974(    12)     0
      5  H        1   0.001210(     4)      2   0.000027(     9)      3   0.000004(    13)     0
         X        5  -0.000000(     5)      1   0.000678(    10)      2   0.000000(    14)     0
      6  H        5   0.007193(     6)      6   0.000678(    11)      1   0.000000(    15)     0
 -----------------------------------------------------------------------------------------------
 Internal  Forces:  Max     0.007193368 RMS     0.001929993
 Leave Link  716 at Fri Aug 23 16:08:49 2019, MaxMem=  2684354560 cpu:         0.2
 (Enter /soft/gaussian/09-e.01/g09/l103.exe)

 GradGradGradGradGradGradGradGradGradGradGradGradGradGradGradGradGradGrad
 Berny optimization.
 Search for a local minimum.
 Step number   2 out of a maximum of   25
 All quantities printed in internal units (Hartrees-Bohrs-Radians)
 Update second derivatives using D2CorN and points    1    2
 DE= -3.16D-04 DEPred=-2.86D-04 R= 1.10D+00
 TightC=F SS=  1.41D+00  RLast= 4.43D-02 DXNew= 5.0454D-01 1.3300D-01
 Trust test= 1.10D+00 RLast= 4.43D-02 DXMaxT set to 3.00D-01
 The second derivative matrix:
                          R1        R2        A2        R3        A3
           R1           0.34591
           R2           0.00028   0.34585
           A2           0.00002   0.00001   0.24191
           R3           0.00028   0.00025   0.00000   0.34585
           A3           0.00002   0.00001   0.03966   0.00000   0.24191
           D3           0.00031   0.00025  -0.06868   0.00025  -0.00492
           R4           0.00157   0.00135  -0.00758   0.00134  -0.00757
           A4          -0.00037  -0.00032   0.04297  -0.00032   0.04297
           D4           0.00047   0.00042   0.06263   0.00041  -0.06488
           D6           0.00000   0.00000  -0.02415   0.00000   0.02415
           A6          -0.00018  -0.00017  -0.00177  -0.00017  -0.00177
           R5           0.00000   0.00000  -0.00000   0.00000  -0.00000
           A5          -0.00045  -0.00041  -0.00112  -0.00041  -0.00112
           D5          -0.00000  -0.00000  -0.00211  -0.00000   0.00211
           R6           0.00061   0.00056   0.00154   0.00056   0.00153
                          D3        R4        A4        D4        D6
           D3           0.20788
           R4          -0.01425   0.32217
           A4           0.06575   0.00143   0.24238
           D4          -0.10998  -0.00235  -0.00006   0.21614
           D6          -0.01314  -0.00000   0.00000   0.02629   0.90146
           A6          -0.00379  -0.00801   0.00095  -0.00134  -0.00000
           R5          -0.00000  -0.00000  -0.00000  -0.00000   0.00000
           A5          -0.00269  -0.00666   0.00099  -0.00134  -0.00000
           D5          -0.00115  -0.00000   0.00000   0.00230   0.07887
           R6           0.00368   0.00911  -0.00135   0.00183   0.00000
                          A6        R5        A5        D5        R6
           A6           0.15846
           R5           0.00000   0.00000
           A5           0.15923  -0.00000   0.16000
           D5          -0.00000   0.00000  -0.00000   0.00690
           R6           0.00105  -0.00000   0.00000   0.00000   0.06473
 ITU=  1  0
     Eigenvalues ---    0.06555   0.13211   0.15844   0.23378   0.31668
     Eigenvalues ---    0.33205   0.34560   0.34560   0.34673   0.38925
     Eigenvalues ---    0.904151000.000001000.000001000.000001000.00000
 RFO step:  Lambda=-1.74470747D-05 EMin= 6.55466858D-02
 Quartic linear search produced a step of  0.15261.
 Variable       Old X    -DE/DX   Delta X   Delta X   Delta X     New X
                                 (Linear)    (Quad)   (Total)
    R1        2.06657  -0.00024   0.00040  -0.00118  -0.00078   2.06579
    R2        2.06633  -0.00021   0.00036  -0.00105  -0.00068   2.06565
    A2        1.91718   0.00057   0.00100   0.00358   0.00458   1.92176
    R3        2.06633  -0.00021   0.00036  -0.00104  -0.00068   2.06565
    A3        1.91716   0.00057   0.00100   0.00379   0.00478   1.92194
    D3        2.11005   0.00097   0.00239   0.00959   0.01198   2.12203
    R4        2.10273   0.00121   0.00592  -0.00092   0.00500   2.10773
    A4        1.90490   0.00003  -0.00087  -0.00396  -0.00484   1.90006
    D4        4.19659   0.00000   0.00119   0.00512   0.00631   4.20290
    D6        3.14159   0.00000   0.00000  -0.00002  -0.00001   3.14158
    A6        1.48800   0.00068   0.00068   0.00465   0.00533   1.49333
    R5        1.88973  -0.00000   0.00000   0.00000   0.00000   1.88973
    A5        1.57080   0.00068   0.00000   0.00000   0.00000   1.57080
    D5        3.14159   0.00000   0.00000   0.00000   0.00000   3.14159
    R6        2.74820   0.00719   0.00000   0.00000   0.00000   2.74820
         Item               Value     Threshold  Converged?
 Maximum Force            0.001210     0.000450     NO 
 RMS     Force            0.000578     0.000300     NO 
 Maximum Displacement     0.011977     0.001800     NO 
 RMS     Displacement     0.004513     0.001200     NO 
 Predicted change in Energy=-1.249779D-05
 Lowest energy point so far.  Saving SCF results.
 GradGradGradGradGradGradGradGradGradGradGradGradGradGradGradGradGradGrad

 Leave Link  103 at Fri Aug 23 16:08:49 2019, MaxMem=  2684354560 cpu:         0.1
 (Enter /soft/gaussian/09-e.01/g09/l202.exe)
 ---------------------------------------------------------------------------------------------------
                            Z-MATRIX (ANGSTROMS AND DEGREES)
   CD    Cent   Atom    N1       Length/X        N2       Alpha/Y        N3        Beta/Z          J
 ---------------------------------------------------------------------------------------------------
      1      1  C 
      2      2  H        1   1.093168(     1)
      3      3  H        1   1.093093(     2)      2  110.109(     7)
      4      4  H        1   1.093094(     3)      2  110.119(     8)      3  121.583(    12)      0
      5      5  H        1   1.115362(     4)      2  108.865(     9)      3  240.809(    13)      0
      6         X        5   1.000000(     5)      1   90.000(    10)      2  180.000(    14)      0
      7      6  H        5   1.454286(     6)      6   85.561(    11)      1  179.999(    15)      0
 ---------------------------------------------------------------------------------------------------
                         Z-Matrix orientation:                         
 ---------------------------------------------------------------------
 Center     Atomic      Atomic             Coordinates (Angstroms)
 Number     Number       Type             X           Y           Z
 ---------------------------------------------------------------------
      1          6           0        0.000000    0.000000    0.000000
      2          1           0        0.000000    0.000000    1.093168
      3          1           0        1.026461    0.000000   -0.375804
      4          1           0       -0.537558   -0.874364   -0.375998
      5          1           0       -0.514771    0.921399   -0.360649
      6         -1           0       -0.357066    0.639119   -1.306929
      7          1           0       -1.166185    2.087417   -0.935983
 ---------------------------------------------------------------------
                    Distance matrix (angstroms):
                    1          2          3          4          5
     1  C    0.000000
     2  H    1.093168   0.000000
     3  H    1.093093   1.792067   0.000000
     4  H    1.093094   1.792186   1.791834   0.000000
     5  H    1.115362   1.796538   1.795718   1.795973   0.000000
     6  X    1.498010   2.509270   1.785949   1.786013   1.000000
     7  H    2.567754   3.136041   3.078767   3.079107   1.454286
                    6          7
     6  X    0.000000
     7  H    1.699954   0.000000
 Stoichiometry    CH5(2)
 Framework group  C1[X(CH5)]
 Deg. of freedom    12
 Full point group                 C1      NOp   1
 RotChk:  IX=0 Diff= 2.97D-01
 Largest Abelian subgroup         C1      NOp   1
 Largest concise Abelian subgroup C1      NOp   1
                         Standard orientation:                         
 ---------------------------------------------------------------------
 Center     Atomic      Atomic             Coordinates (Angstroms)
 Number     Number       Type             X           Y           Z
 ---------------------------------------------------------------------
      1          6           0       -0.238615   -0.000174    0.000007
      2          1           0       -0.637201    0.998613   -0.196387
      3          1           0       -0.567732   -0.349736    0.982016
      4          1           0       -0.568184   -0.695827   -0.776077
      5          1           0        0.875670    0.047909   -0.009485
      6          1           0        2.329139    0.000087   -0.000109
 ---------------------------------------------------------------------
 Rotational constants (GHZ):    156.1522522     53.2974514     53.2934610
 Leave Link  202 at Fri Aug 23 16:08:49 2019, MaxMem=  2684354560 cpu:         0.1
 (Enter /soft/gaussian/09-e.01/g09/l301.exe)
 Standard basis: 6-31G(d) (6D, 7F)
 Ernie: Thresh=  0.10000D-02 Tol=  0.10000D-05 Strict=F.
 There are    25 symmetry adapted cartesian basis functions of A   symmetry.
 There are    25 symmetry adapted basis functions of A   symmetry.
    25 basis functions,    48 primitive gaussians,    25 cartesian basis functions
     6 alpha electrons        5 beta electrons
       nuclear repulsion energy        15.4430842509 Hartrees.
 IExCor=  402 DFT=T Ex+Corr=B3LYP ExCW=0 ScaHFX=  0.200000
 ScaDFX=  0.800000  0.720000  1.000000  0.810000 ScalE2=  1.000000  1.000000
 IRadAn=      5 IRanWt=     -1 IRanGd=            0 ICorTp=0 IEmpDi=  4
 NAtoms=    6 NActive=    6 NUniq=    6 SFac= 1.00D+00 NAtFMM=   60 NAOKFM=F Big=F
 Integral buffers will be    131072 words long.
 Raffenetti 2 integral format.
 Two-electron integral symmetry is turned on.
 Leave Link  301 at Fri Aug 23 16:08:49 2019, MaxMem=  2684354560 cpu:         0.5
 (Enter /soft/gaussian/09-e.01/g09/l302.exe)
 NPDir=0 NMtPBC=     1 NCelOv=     1 NCel=       1 NClECP=     1 NCelD=      1
         NCelK=      1 NCelE2=     1 NClLst=     1 CellRange=     0.0.
 One-electron integrals computed using PRISM.
 NBasis=    25 RedAO= T EigKep=  1.44D-02  NBF=    25
 NBsUse=    25 1.00D-06 EigRej= -1.00D+00 NBFU=    25
 Precomputing XC quadrature grid using
 IXCGrd= 4 IRadAn=           5 IRanWt=          -1 IRanGd=           0 AccXCQ= 0.00D+00.
 Generated NRdTot=       0 NPtTot=           0 NUsed=           0 NTot=          32
 NSgBfM=    25    25    25    25    25 MxSgAt=     6 MxSgA2=     6.
 Leave Link  302 at Fri Aug 23 16:08:49 2019, MaxMem=  2684354560 cpu:         1.6
 (Enter /soft/gaussian/09-e.01/g09/l303.exe)
 DipDrv:  MaxL=1.
 Leave Link  303 at Fri Aug 23 16:08:49 2019, MaxMem=  2684354560 cpu:         0.2
 (Enter /soft/gaussian/09-e.01/g09/l401.exe)
 Initial guess from the checkpoint file:  "/blues/gpfs/home/elliott/Packages/PACC/moldriver/rcdriver/rundir/RXN/CH3.H2/MDUSDFXREFXETQ/0_0/2_1/UHFFFAOYSA-N/CH4.H/HXBDELFRWIQQII/0_0/1_2/UHFFFAOYSA-N/2/ezvlpJU/SCANS/R6/05/RUN/OPTI/A00/Gau-42997.chk"
 B after Tr=    -0.000000    0.000000    0.000000
         Rot=    0.994605    0.103731   -0.000002    0.000506 Ang=  11.91 deg.
 Guess basis will be translated and rotated to current coordinates.
 JPrj=2 DoOrth=T DoCkMO=T.
 Initial guess <Sx>= 0.0000 <Sy>= 0.0000 <Sz>= 0.5000 <S**2>= 0.7517 S= 0.5008
 Leave Link  401 at Fri Aug 23 16:08:49 2019, MaxMem=  2684354560 cpu:         0.7
 (Enter /soft/gaussian/09-e.01/g09/l502.exe)
 UHF open shell SCF:
 Using DIIS extrapolation, IDIIS=  1040.
 Integral symmetry usage will be decided dynamically.
 Keep R1 and R2 ints in memory in canonical form, NReq=976418.
 IVT=        8268 IEndB=        8268 NGot=  2684354560 MDV=  2684240343
 LenX=  2684240343 LenY=  2684239277
 Requested convergence on RMS density matrix=1.00D-08 within  64 cycles.
 Requested convergence on MAX density matrix=1.00D-06.
 Requested convergence on             energy=1.00D-06.
 No special actions if energy rises.
 FoFCou: FMM=F IPFlag=           0 FMFlag=           0 FMFlg1=           0
         NFxFlg=           0 DoJE=F BraDBF=F KetDBF=F FulRan=T
         wScrn=  0.000000 ICntrl=     600 IOpCl=  0 I1Cent=           0 NGrid=           0
         NMat0=    1 NMatS0=    325 NMatT0=    0 NMatD0=    1 NMtDS0=    0 NMtDT0=    0
 Symmetry not used in FoFCou.

 Cycle   1  Pass 1  IDiag  1:
 E= -41.0140902322034    
 DIIS: error= 3.94D-04 at cycle   1 NSaved=   1.
 NSaved= 1 IEnMin= 1 EnMin= -41.0140902322034     IErMin= 1 ErrMin= 3.94D-04
 ErrMax= 3.94D-04  0.00D+00 EMaxC= 1.00D-01 BMatC= 1.26D-05 BMatP= 1.26D-05
 IDIUse=3 WtCom= 9.96D-01 WtEn= 3.94D-03
 Coeff-Com:  0.100D+01
 Coeff-En:   0.100D+01
 Coeff:      0.100D+01
 Gap=     2.111 Goal=   None    Shift=    0.000
 Gap=     2.032 Goal=   None    Shift=    0.000
 RMSDP=1.00D-04 MaxDP=7.82D-04              OVMax= 1.79D-03

 Cycle   2  Pass 1  IDiag  1:
 E= -41.0140959048147     Delta-E=       -0.000005672611 Rises=F Damp=F
 DIIS: error= 7.61D-05 at cycle   2 NSaved=   2.
 NSaved= 2 IEnMin= 2 EnMin= -41.0140959048147     IErMin= 2 ErrMin= 7.61D-05
 ErrMax= 7.61D-05  0.00D+00 EMaxC= 1.00D-01 BMatC= 4.17D-07 BMatP= 1.26D-05
 IDIUse=1 WtCom= 1.00D+00 WtEn= 0.00D+00
 Coeff-Com:  0.148D-01 0.985D+00
 Coeff:      0.148D-01 0.985D+00
 Gap=     0.404 Goal=   None    Shift=    0.000
 Gap=     0.308 Goal=   None    Shift=    0.000
 RMSDP=2.93D-05 MaxDP=2.18D-04 DE=-5.67D-06 OVMax= 2.69D-04

 Cycle   3  Pass 1  IDiag  1:
 E= -41.0140959435318     Delta-E=       -0.000000038717 Rises=F Damp=F
 DIIS: error= 7.69D-05 at cycle   3 NSaved=   3.
 NSaved= 3 IEnMin= 3 EnMin= -41.0140959435318     IErMin= 2 ErrMin= 7.61D-05
 ErrMax= 7.69D-05  0.00D+00 EMaxC= 1.00D-01 BMatC= 4.21D-07 BMatP= 4.17D-07
 IDIUse=1 WtCom= 1.00D+00 WtEn= 0.00D+00
 Coeff-Com: -0.214D-01 0.511D+00 0.511D+00
 Coeff:     -0.214D-01 0.511D+00 0.511D+00
 Gap=     0.404 Goal=   None    Shift=    0.000
 Gap=     0.308 Goal=   None    Shift=    0.000
 RMSDP=1.11D-05 MaxDP=1.06D-04 DE=-3.87D-08 OVMax= 1.78D-04

 Cycle   4  Pass 1  IDiag  1:
 E= -41.0140960545027     Delta-E=       -0.000000110971 Rises=F Damp=F
 DIIS: error= 7.93D-06 at cycle   4 NSaved=   4.
 NSaved= 4 IEnMin= 4 EnMin= -41.0140960545027     IErMin= 4 ErrMin= 7.93D-06
 ErrMax= 7.93D-06  0.00D+00 EMaxC= 1.00D-01 BMatC= 5.12D-09 BMatP= 4.17D-07
 IDIUse=1 WtCom= 1.00D+00 WtEn= 0.00D+00
 Coeff-Com: -0.563D-02 0.193D-01 0.908D-01 0.896D+00
 Coeff:     -0.563D-02 0.193D-01 0.908D-01 0.896D+00
 Gap=     0.404 Goal=   None    Shift=    0.000
 Gap=     0.308 Goal=   None    Shift=    0.000
 RMSDP=2.12D-06 MaxDP=1.82D-05 DE=-1.11D-07 OVMax= 3.35D-05

 Cycle   5  Pass 1  IDiag  1:
 E= -41.0140960565380     Delta-E=       -0.000000002035 Rises=F Damp=F
 DIIS: error= 2.51D-06 at cycle   5 NSaved=   5.
 NSaved= 5 IEnMin= 5 EnMin= -41.0140960565380     IErMin= 5 ErrMin= 2.51D-06
 ErrMax= 2.51D-06  0.00D+00 EMaxC= 1.00D-01 BMatC= 3.18D-10 BMatP= 5.12D-09
 IDIUse=1 WtCom= 1.00D+00 WtEn= 0.00D+00
 Coeff-Com:  0.167D-02-0.343D-01-0.215D-01 0.682D-01 0.986D+00
 Coeff:      0.167D-02-0.343D-01-0.215D-01 0.682D-01 0.986D+00
 Gap=     0.404 Goal=   None    Shift=    0.000
 Gap=     0.308 Goal=   None    Shift=    0.000
 RMSDP=8.10D-07 MaxDP=7.56D-06 DE=-2.04D-09 OVMax= 1.36D-05

 Cycle   6  Pass 1  IDiag  1:
 E= -41.0140960567556     Delta-E=       -0.000000000218 Rises=F Damp=F
 DIIS: error= 6.54D-07 at cycle   6 NSaved=   6.
 NSaved= 6 IEnMin= 6 EnMin= -41.0140960567556     IErMin= 6 ErrMin= 6.54D-07
 ErrMax= 6.54D-07  0.00D+00 EMaxC= 1.00D-01 BMatC= 2.60D-11 BMatP= 3.18D-10
 IDIUse=1 WtCom= 1.00D+00 WtEn= 0.00D+00
 Coeff-Com:  0.442D-03-0.990D-03-0.532D-02-0.891D-01-0.765D-01 0.117D+01
 Coeff:      0.442D-03-0.990D-03-0.532D-02-0.891D-01-0.765D-01 0.117D+01
 Gap=     0.404 Goal=   None    Shift=    0.000
 Gap=     0.308 Goal=   None    Shift=    0.000
 RMSDP=3.30D-07 MaxDP=3.17D-06 DE=-2.18D-10 OVMax= 4.53D-06

 Cycle   7  Pass 1  IDiag  1:
 E= -41.0140960567756     Delta-E=       -0.000000000020 Rises=F Damp=F
[...]
           A3           0.00043   0.00038   0.03949   0.00043   0.24171
           D3           0.00142   0.00126  -0.06801   0.00139  -0.00435
           R4           0.00402   0.00353  -0.01035   0.00359  -0.01033
           A4          -0.00085  -0.00076   0.04153  -0.00082   0.04152
           D4           0.00106   0.00096   0.06449   0.00103  -0.06302
           D6          -0.00000  -0.00000  -0.02414  -0.00001   0.02416
           A6           0.00070   0.00011   0.00004   0.00012   0.00002
           R5           0.00000   0.00000  -0.00000   0.00000  -0.00000
           A5           0.00500   0.00454  -0.01574   0.00485  -0.01576
           D5          -0.00000  -0.00000  -0.00211  -0.00000   0.00211
           R6           0.00111   0.00101   0.00247   0.00102   0.00246
                          D3        R4        A4        D4        D6
           D3           0.21180
           R4          -0.01747   0.32210
           A4           0.06127  -0.00058   0.24526
           D4          -0.10411  -0.00023  -0.00392   0.22123
           D6          -0.01312  -0.00000  -0.00001   0.02630   0.90146
           A6          -0.00200  -0.00017   0.00304  -0.00090   0.00007
           R5          -0.00000   0.00000  -0.00000  -0.00000   0.00000
           A5          -0.04398  -0.00202   0.01822  -0.02173   0.00001
           D5          -0.00115  -0.00000  -0.00000   0.00230   0.07887
           R6           0.00582   0.01564  -0.00211   0.00290   0.00000
                          A6        R5        A5        D5        R6
           A6           0.00836
           R5           0.00000   0.00000
           A5           0.01565  -0.00000   0.16000
           D5           0.00001   0.00000  -0.00000   0.00690
           R6           0.00023  -0.00000   0.00000   0.00000   0.06473
 ITU=  0  1  1  1  1  1  1  0
     Eigenvalues ---    0.00821   0.07895   0.13198   0.23378   0.31111
     Eigenvalues ---    0.33431   0.34560   0.34560   0.34880   0.38928
     Eigenvalues ---    0.904151000.000001000.000001000.000001000.00000
 RFO step:  Lambda= 0.00000000D+00 EMin= 8.21356281D-03
 Quartic linear search produced a step of -0.01116.
 Variable       Old X    -DE/DX   Delta X   Delta X   Delta X     New X
                                 (Linear)    (Quad)   (Total)
    R1        2.06549   0.00000   0.00000   0.00000   0.00000   2.06549
    R2        2.06550  -0.00000   0.00000  -0.00000  -0.00000   2.06549
    A2        1.92214   0.00000  -0.00000   0.00001   0.00001   1.92215
    R3        2.06551  -0.00000   0.00000  -0.00001  -0.00001   2.06550
    A3        1.92210   0.00000  -0.00000   0.00004   0.00004   1.92214
    D3        2.12312   0.00001  -0.00000   0.00011   0.00011   2.12323
    R4        2.10772   0.00000  -0.00000   0.00001   0.00001   2.10773
    A4        1.89904  -0.00000   0.00000  -0.00005  -0.00005   1.89899
    D4        4.20310   0.00001  -0.00000   0.00009   0.00009   4.20319
    D6        3.14159   0.00000   0.00000  -0.00000  -0.00000   3.14159
    A6        1.57099  -0.00000  -0.00012   0.00001  -0.00011   1.57088
    R5        1.88973  -0.00000   0.00000   0.00000   0.00000   1.88973
    A5        1.57080  -0.00000   0.00000   0.00000   0.00000   1.57080
    D5        3.14159  -0.00000   0.00000   0.00000   0.00000   3.14159
    R6        2.74820   0.00699   0.00000   0.00000   0.00000   2.74820
         Item               Value     Threshold  Converged?
 Maximum Force            0.000009     0.000450     YES
 RMS     Force            0.000004     0.000300     YES
 Maximum Displacement     0.000109     0.001800     YES
 RMS     Displacement     0.000049     0.001200     YES
 Predicted change in Energy=-1.051023D-09
 Optimization completed.
    -- Stationary point found.
                       ----------------------------
                       !   Optimized Parameters   !
                       ! (Angstroms and Degrees)  !
 ----------------------                            ----------------------
 !      Name          Value   Derivative information (Atomic Units)     !
 ------------------------------------------------------------------------
 !       R1          1.093    -DE/DX =    0.0                           !
 !       R2          1.093    -DE/DX =    0.0                           !
 !       A2        110.1307   -DE/DX =    0.0                           !
 !       R3          1.093    -DE/DX =    0.0                           !
 !       A3        110.1284   -DE/DX =    0.0                           !
 !       D3        121.6461   -DE/DX =    0.0                           !
 !       R4          1.1154   -DE/DX =    0.0                           !
 !       A4        108.807    -DE/DX =    0.0                           !
 !       D4        240.8199   -DE/DX =    0.0                           !
 !       D6        179.9997   -DE/DX =    0.0                           !
 !       A6         90.011    -DE/DX =    0.0                           !
 !       R5          1.0      -DE/DX =    0.0                           !
 !       A5         90.0      -DE/DX =    0.0                           !
 !       D5        180.0      -DE/DX =    0.0                           !
 !       R6          1.4543   -DE/DX =    0.007                         !
 ------------------------------------------------------------------------
 Lowest energy point so far.  Saving SCF results.
 GradGradGradGradGradGradGradGradGradGradGradGradGradGradGradGradGradGrad

 Largest change from initial coordinates is atom    6       0.903 Angstoms.
 Leave Link  103 at Fri Aug 23 16:08:58 2019, MaxMem=  2684354560 cpu:         0.1
 (Enter /soft/gaussian/09-e.01/g09/l202.exe)
 ---------------------------------------------------------------------------------------------------
                            Z-MATRIX (ANGSTROMS AND DEGREES)
   CD    Cent   Atom    N1       Length/X        N2       Alpha/Y        N3        Beta/Z          J
 ---------------------------------------------------------------------------------------------------
      1      1  C 
      2      2  H        1   1.093011(     1)
      3      3  H        1   1.093013(     2)      2  110.131(     7)
      4      4  H        1   1.093020(     3)      2  110.128(     8)      3  121.646(    12)      0
      5      5  H        1   1.115357(     4)      2  108.807(     9)      3  240.820(    13)      0
      6         X        5   1.000000(     5)      1   90.000(    10)      2  180.000(    14)      0
      7      6  H        5   1.454286(     6)      6   90.011(    11)      1  180.000(    15)      0
 ---------------------------------------------------------------------------------------------------
                         Z-Matrix orientation:                         
 ---------------------------------------------------------------------
 Center     Atomic      Atomic             Coordinates (Angstroms)
 Number     Number       Type             X           Y           Z
 ---------------------------------------------------------------------
      1          6           0        0.000000    0.000000    0.000000
      2          1           0        0.000000    0.000000    1.093011
      3          1           0        1.026241    0.000000   -0.376175
      4          1           0       -0.538450   -0.873663   -0.376135
      5          1           0       -0.514766    0.921816   -0.359570
      6         -1           0       -0.357587    0.640348   -1.306180
      7          1           0       -1.185996    2.123832   -0.828141
 ---------------------------------------------------------------------
                    Distance matrix (angstroms):
                    1          2          3          4          5
     1  C    0.000000
     2  H    1.093011   0.000000
     3  H    1.093013   1.792115   0.000000
     4  H    1.093020   1.792095   1.792078   0.000000
     5  H    1.115357   1.795751   1.795752   1.795712   0.000000
     6  X    1.498005   2.508791   1.786039   1.786036   1.000000
     7  H    2.569643   3.099689   3.099826   3.099774   1.454286
                    6          7
     6  X    0.000000
     7  H    1.765079   0.000000
 Stoichiometry    CH5(2)
 Framework group  C1[X(CH5)]
 Deg. of freedom    12
 Full point group                 C1      NOp   1
 RotChk:  IX=2 Diff= 2.48D-16
 Largest Abelian subgroup         C1      NOp   1
 Largest concise Abelian subgroup C1      NOp   1
                         Standard orientation:                         
 ---------------------------------------------------------------------
 Center     Atomic      Atomic             Coordinates (Angstroms)
 Number     Number       Type             X           Y           Z
 ---------------------------------------------------------------------
      1          6           0       -0.238907    0.000005    0.000008
      2          1           0       -0.591160    0.993143    0.290295
      3          1           0       -0.591329   -0.747950    0.714878
      4          1           0       -0.591257   -0.245112   -1.005209
      5          1           0        0.876450   -0.000112   -0.000026
      6          1           0        2.330736    0.000001    0.000015
 ---------------------------------------------------------------------
 Rotational constants (GHZ):    156.1382520     53.2511360     53.2507016
 Leave Link  202 at Fri Aug 23 16:08:58 2019, MaxMem=  2684354560 cpu:         0.1
 (Enter /soft/gaussian/09-e.01/g09/l601.exe)
 Copying SCF densities to generalized density rwf, IOpCl= 1 IROHF=0.

 **********************************************************************

            Population analysis using the SCF density.

 **********************************************************************

 Orbital symmetries:
 Alpha Orbitals:
       Occupied  (A) (A) (A) (A) (A) (A)
       Virtual   (A) (A) (A) (A) (A) (A) (A) (A) (A) (A) (A) (A)
                 (A) (A) (A) (A) (A) (A) (A)
 Beta  Orbitals:
       Occupied  (A) (A) (A) (A) (A)
       Virtual   (A) (A) (A) (A) (A) (A) (A) (A) (A) (A) (A) (A)
                 (A) (A) (A) (A) (A) (A) (A) (A)
 The electronic state is 2-A.
 Alpha  occ. eigenvalues --  -10.17402  -0.69840  -0.42351  -0.39568  -0.39567
 Alpha  occ. eigenvalues --   -0.27901
 Alpha virt. eigenvalues --    0.12489   0.17259   0.17260   0.23237   0.52914
 Alpha virt. eigenvalues --    0.52915   0.53699   0.73985   0.89355   0.89357
 Alpha virt. eigenvalues --    0.93293   0.96546   1.17709   1.64834   1.64834
 Alpha virt. eigenvalues --    2.21405   2.23492   2.23493   4.19988
  Beta  occ. eigenvalues --  -10.17136  -0.69176  -0.39737  -0.39397  -0.39396
  Beta virt. eigenvalues --   -0.08593   0.12774   0.17420   0.17420   0.25148
  Beta virt. eigenvalues --    0.52935   0.52935   0.54879   0.88132   0.89576
  Beta virt. eigenvalues --    0.89577   0.93643   0.97257   1.18965   1.65611
  Beta virt. eigenvalues --    1.65611   2.22269   2.23935   2.23935   4.20546
          Condensed to atoms (all electrons):
               1          2          3          4          5          6
     1  C    5.131315   0.381712   0.381708   0.381705   0.357270  -0.042988
     2  H    0.381712   0.533930  -0.025704  -0.025706  -0.027598   0.001275
     3  H    0.381708  -0.025704   0.533934  -0.025708  -0.027595   0.001275
     4  H    0.381705  -0.025706  -0.025708   0.533946  -0.027599   0.001275
     5  H    0.357270  -0.027598  -0.027595  -0.027599   0.586393   0.026256
     6  H   -0.042988   0.001275   0.001275   0.001275   0.026256   1.021324
          Atomic-Atomic Spin Densities.
               1          2          3          4          5          6
     1  C    0.198688  -0.007581  -0.007582  -0.007583   0.022178  -0.055617
     2  H   -0.007581  -0.000305   0.001432   0.001432   0.001139   0.002072
     3  H   -0.007582   0.001432  -0.000301   0.001432   0.001139   0.002072
     4  H   -0.007583   0.001432   0.001432  -0.000302   0.001139   0.002072
     5  H    0.022178   0.001139   0.001139   0.001139  -0.060807  -0.020804
     6  H   -0.055617   0.002072   0.002072   0.002072  -0.020804   0.989147
 Mulliken charges and spin densities:
               1          2
     1  C   -0.590722   0.142503
     2  H    0.162091  -0.001811
     3  H    0.162090  -0.001809
     4  H    0.162086  -0.001809
     5  H    0.112873  -0.056016
     6  H   -0.008418   0.918943
 Sum of Mulliken charges =  -0.00000   1.00000
 Mulliken charges and spin densities with hydrogens summed into heavy atoms:
               1          2
     1  C   -0.000000   1.000000
 Electronic spatial extent (au):  <R**2>=             60.3475
 Charge=             -0.0000 electrons
 Dipole moment (field-independent basis, Debye):
    X=             -0.2990    Y=             -0.0000    Z=             -0.0000  Tot=              0.2990
 Quadrupole moment (field-independent basis, Debye-Ang):
   XX=            -10.3099   YY=             -9.4845   ZZ=             -9.4846
   XY=              0.0000   XZ=             -0.0001   YZ=             -0.0000
 Traceless Quadrupole moment (field-independent basis, Debye-Ang):
   XX=             -0.5503   YY=              0.2752   ZZ=              0.2751
   XY=              0.0000   XZ=             -0.0001   YZ=             -0.0000
 Octapole moment (field-independent basis, Debye-Ang**2):
  XXX=             -4.5854  YYY=              0.3814  ZZZ=             -0.4369  XYY=             -1.5375
  XXY=             -0.0001  XXZ=              0.0000  XZZ=             -1.5375  YZZ=             -0.3813
  YYZ=              0.4369  XYZ=              0.0001
 Hexadecapole moment (field-independent basis, Debye-Ang**3):
 XXXX=            -67.2412 YYYY=            -16.3668 ZZZZ=            -16.3670 XXXY=              0.0001
 XXXZ=             -0.0002 YYYX=             -0.2984 YYYZ=              0.0000 ZZZX=              0.3418
 ZZZY=             -0.0000 XXYY=            -13.1439 XXZZ=            -13.1439 YYZZ=             -5.4557
 XXYZ=             -0.0001 YYXZ=             -0.3420 ZZXY=              0.2985
 N-N= 1.544281432107D+01 E-N=-1.248880260652D+02  KE= 4.059516210540D+01
                          Isotropic Fermi Contact Couplings
        Atom                 a.u.       MegaHertz       Gauss      10(-4) cm-1
     1  C(13)              0.06444      72.44528      25.85028      24.16514
     2  H(1)              -0.00089      -3.95929      -1.41277      -1.32068
     3  H(1)              -0.00088      -3.95541      -1.41139      -1.31938
     4  H(1)              -0.00089      -3.95633      -1.41172      -1.31969
     5  H(1)              -0.00540     -24.14013      -8.61380      -8.05228
     6  H(1)               0.29011    1296.76306     462.71729     432.55360
 --------------------------------------------------------
       Center         ----  Spin Dipole Couplings  ----
                      3XX-RR        3YY-RR        3ZZ-RR
 --------------------------------------------------------
     1   Atom        0.180879     -0.090439     -0.090440
     2   Atom        0.006195      0.005192     -0.011387
     3   Atom        0.006195     -0.002653     -0.003542
     4   Atom        0.006195     -0.011831      0.005636
     5   Atom        0.116714     -0.058357     -0.058357
     6   Atom       -0.009709      0.004855      0.004855
 --------------------------------------------------------
                        XY            XZ            YZ
 --------------------------------------------------------
     1   Atom       -0.000018      0.000003      0.000000
     2   Atom       -0.008664     -0.002532      0.005299
     3   Atom        0.006525     -0.006237     -0.009827
     4   Atom        0.002138      0.008769      0.004528
     5   Atom       -0.000000     -0.000001      0.000000
     6   Atom       -0.000001     -0.000000      0.000000
 --------------------------------------------------------


 ---------------------------------------------------------------------------------
              Anisotropic Spin Dipole Couplings in Principal Axis System
 ---------------------------------------------------------------------------------

       Atom             a.u.   MegaHertz   Gauss  10(-4) cm-1        Axes

              Baa    -0.0904   -12.136    -4.330    -4.048 -0.0000 -0.6251  0.7805
     1 C(13)  Bbb    -0.0904   -12.136    -4.330    -4.048  0.0000  0.7805  0.6251
              Bcc     0.1809    24.272     8.661     8.096  1.0000 -0.0001  0.0000
 
              Baa    -0.0129    -6.902    -2.463    -2.302 -0.0000 -0.2806  0.9598
     2 H(1)   Bbb    -0.0026    -1.367    -0.488    -0.456  0.7177  0.6684  0.1954
              Bcc     0.0155     8.269     2.951     2.758  0.6963 -0.6889 -0.2014
 
              Baa    -0.0129    -6.901    -2.463    -2.302  0.0000  0.6909  0.7229
     3 H(1)   Bbb    -0.0026    -1.368    -0.488    -0.456  0.7177 -0.5034  0.4811
              Bcc     0.0155     8.269     2.951     2.758  0.6964  0.5188 -0.4959
 
              Baa    -0.0129    -6.902    -2.463    -2.302  0.0000  0.9715 -0.2369
     4 H(1)   Bbb    -0.0026    -1.367    -0.488    -0.456  0.7177 -0.1650 -0.6765
              Bcc     0.0155     8.269     2.951     2.758  0.6963  0.1700  0.6973
 
              Baa    -0.0584   -31.137   -11.110   -10.386  0.0000 -0.3385  0.9410
     5 H(1)   Bbb    -0.0584   -31.136   -11.110   -10.386  0.0000  0.9410  0.3385
              Bcc     0.1167    62.273    22.221    20.772  1.0000 -0.0000 -0.0000
 
              Baa    -0.0097    -5.180    -1.848    -1.728  1.0000  0.0001  0.0000
     6 H(1)   Bbb     0.0049     2.590     0.924     0.864  0.0000 -0.6511  0.7590
              Bcc     0.0049     2.590     0.924     0.864 -0.0001  0.7590  0.6511
 

 ---------------------------------------------------------------------------------

 No NMR shielding tensors so no spin-rotation constants.
 Leave Link  601 at Fri Aug 23 16:08:59 2019, MaxMem=  2684354560 cpu:         3.1
 (Enter /soft/gaussian/09-e.01/g09/l9999.exe)
 1\1\GINC-BLUESLOGIN2\POpt\UB3LYP\6-31G(d)\C1H5(2)\ELLIOTT\23-Aug-2019\
 1\\#P b3lyp/6-31g* # SCF=(xqc) # POpt=() # int=ultrafine\\comment:\\0,
 2\C\H,1,R1\H,1,R2,2,A2\H,1,R3,2,A3,3,D3,0\H,1,R4,2,A4,3,D4,0\X,5,R5,1,
 A5,2,D5,0\H,5,R6,6,A6,1,D6,0\\R1=1.09301098\R2=1.09301335\A2=110.13071
 834\R3=1.0930203\A3=110.12836589\D3=121.64605423\R4=1.11535657\A4=108.
 80698253\D4=240.81986774\D6=179.99974259\A6=90.01096956\R5=1.\A5=90.\D
 5=180.\R6=1.454286\\Version=ES64L-G09RevE.01\State=2-A\HF=-41.0141208\
 S2=0.751725\S2-1=0.\S2A=0.75\RMSD=2.127e-09\RMSF=2.329e-03\Dipole=0.05
 42901,-0.0972371,0.0379096\Quadrupole=0.0738411,-0.2147017,0.1408606,0
 .2340424,-0.0912999,0.1634581\PG=C01 [X(C1H5)]\\@


 EXPERIMENTALISTS THINK SILICON IS REALLY FUN TO USE
     ITS PLACE IN NOVEL COMPOUNDS IS CERTAIN TO AMUSE
 THEY SIT ALL DAY IN LABORATORIES MAKING ALL THIS SLUDGE
     "LOADED WITH THE SILICON THEY SAY", TO ME IT LOOKS LIKE FUDGE.
 FOR HAPPY THOUGH THEY BE WITH CRUD, I'D LIKE TO KNOW A LITTLE
      ABOUT THE PI BONDS ON THE EDGE AND SIGMAS IN THE MIDDLE.

 SO LETS DERIVE A WAVEFUNCTION.....6-31G*
     USE AN OPTIMAL GEOMETRY AND SEE WHERE ELECTRONS ARE.
 BUT WHAT OF CORRELATION?  ASKS THE WIRY LITTLE SKEPTIC.
     WE'LL THROW IN PERTURBATION AS AN ELECTRON ANTISEPTIC.
 AND WHEN THE PROGRAM GIVES US ANSWERS IN THEM WE CAN TRUST
     SINCE NOBODY CAN MAKE THE STUFF, WE HAVE NO CHOICE, WE MUST.

 SO THEORY GUYS HAVE GOT IT MADE, IN ROOMS FREE OF POLLUTION.
     INSTEAD OF PROBLEMS WITH THE REFLUX, THEY HAVE ONLY SOLUTIONS.
 AND WHEN THE FEDS ANNOUNCE THE LIST OF CARCINOGENIC TERRORS,
     THE THEORISTS SIT SAFELY AT THEIR TERMINALS FIXING ERRORS.
 IN OTHER WORDS, EXPERIMENTALISTS WILL LIKELY DIE OF CANCER
     FROM WORKING HARD YET FRUITLESSLY...TILL THEORY GIVES THE ANSWER.
          -- THOMAS A. HOLME, 1983
 Job cpu time:       0 days  0 hours  2 minutes  3.6 seconds.
 File lengths (MBytes):  RWF=     72 Int=      0 D2E=      0 Chk=      2 Scr=      2
 Normal termination of Gaussian 09 at Fri Aug 23 16:08:59 2019.
