 Entering Gaussian System, Link 0=g09
 Input=run.inp
 Output=run.out
 Initial command:
 /soft/gaussian/09-e.01/g09/l1.exe "/blues/gpfs/home/elliott/Packages/PACC/moldriver/rcdriver/rundir/RXN/CH3.H2/MDUSDFXREFXETQ/0_0/2_1/UHFFFAOYSA-N/CH4.H/HXBDELFRWIQQII/0_0/1_2/UHFFFAOYSA-N/2/ezvlpJU/SCANS/R6/01/RUN/OPTI/A02/Gau-35791.inp" -scrdir="/blues/gpfs/home/elliott/Packages/PACC/moldriver/rcdriver/rundir/RXN/CH3.H2/MDUSDFXREFXETQ/0_0/2_1/UHFFFAOYSA-N/CH4.H/HXBDELFRWIQQII/0_0/1_2/UHFFFAOYSA-N/2/ezvlpJU/SCANS/R6/01/RUN/OPTI/A02/"
 Entering Link 1 = /soft/gaussian/09-e.01/g09/l1.exe PID=     35792.
  
 Copyright (c) 1988,1990,1992,1993,1995,1998,2003,2009,2015,
            Gaussian, Inc.  All Rights Reserved.
  
 This is part of the Gaussian(R) 09 program.  It is based on
 the Gaussian(R) 03 system (copyright 2003, Gaussian, Inc.),
 the Gaussian(R) 98 system (copyright 1998, Gaussian, Inc.),
 the Gaussian(R) 94 system (copyright 1995, Gaussian, Inc.),
 the Gaussian 92(TM) system (copyright 1992, Gaussian, Inc.),
 the Gaussian 90(TM) system (copyright 1990, Gaussian, Inc.),
 the Gaussian 88(TM) system (copyright 1988, Gaussian, Inc.),
 the Gaussian 86(TM) system (copyright 1986, Carnegie Mellon
 University), and the Gaussian 82(TM) system (copyright 1983,
 Carnegie Mellon University). Gaussian is a federally registered
 trademark of Gaussian, Inc.
  
 This software contains proprietary and confidential information,
 including trade secrets, belonging to Gaussian, Inc.
  
 This software is provided under written license and may be
 used, copied, transmitted, or stored only in accord with that
 written license.
  
 The following legend is applicable only to US Government
 contracts under FAR:
  
                    RESTRICTED RIGHTS LEGEND
  
 Use, reproduction and disclosure by the US Government is
 subject to restrictions as set forth in subparagraphs (a)
 and (c) of the Commercial Computer Software - Restricted
 Rights clause in FAR 52.227-19.
  
 Gaussian, Inc.
 340 Quinnipiac St., Bldg. 40, Wallingford CT 06492
  
  
 ---------------------------------------------------------------
 Warning -- This program may not be used in any manner that
 competes with the business of Gaussian, Inc. or will provide
 assistance to any competitor of Gaussian, Inc.  The licensee
 of this program is prohibited from giving any competitor of
 Gaussian, Inc. access to this program.  By using this program,
 the user acknowledges that Gaussian, Inc. is engaged in the
 business of creating and licensing software in the field of
 computational chemistry and represents and warrants to the
 licensee that it is not a competitor of Gaussian, Inc. and that
 it will not use this program in any manner prohibited above.
 ---------------------------------------------------------------
  

 Cite this work as:
 Gaussian 09, Revision E.01,
 M. J. Frisch, G. W. Trucks, H. B. Schlegel, G. E. Scuseria, 
 M. A. Robb, J. R. Cheeseman, G. Scalmani, V. Barone, B. Mennucci, 
 G. A. Petersson, H. Nakatsuji, M. Caricato, X. Li, H. P. Hratchian, 
 A. F. Izmaylov, J. Bloino, G. Zheng, J. L. Sonnenberg, M. Hada, 
 M. Ehara, K. Toyota, R. Fukuda, J. Hasegawa, M. Ishida, T. Nakajima, 
 Y. Honda, O. Kitao, H. Nakai, T. Vreven, J. A. Montgomery, Jr., 
 J. E. Peralta, F. Ogliaro, M. Bearpark, J. J. Heyd, E. Brothers, 
 K. N. Kudin, V. N. Staroverov, T. Keith, R. Kobayashi, J. Normand, 
 K. Raghavachari, A. Rendell, J. C. Burant, S. S. Iyengar, J. Tomasi, 
 M. Cossi, N. Rega, J. M. Millam, M. Klene, J. E. Knox, J. B. Cross, 
 V. Bakken, C. Adamo, J. Jaramillo, R. Gomperts, R. E. Stratmann, 
 O. Yazyev, A. J. Austin, R. Cammi, C. Pomelli, J. W. Ochterski, 
 R. L. Martin, K. Morokuma, V. G. Zakrzewski, G. A. Voth, 
 P. Salvador, J. J. Dannenberg, S. Dapprich, A. D. Daniels, 
 O. Farkas, J. B. Foresman, J. V. Ortiz, J. Cioslowski, 
 and D. J. Fox, Gaussian, Inc., Wallingford CT, 2013.
 
 ******************************************
 Gaussian 09:  ES64L-G09RevE.01 30-Nov-2015
                23-Aug-2019 
 ******************************************
 %mem=20GB
 %NProcShared=10
 Will use up to   10 processors via shared memory.
 -----------------------------------------------------
 #P b3lyp/6-31g* # SCF=(xqc) # POpt=() # int=ultrafine
 -----------------------------------------------------
 1/10=7,14=-1,26=4,38=1/1,3;
 2/12=2,17=6,18=5,29=3,40=1/2;
 3/5=1,6=6,7=1,11=2,16=1,25=1,30=1,71=1,74=-5,75=-5/1,2,3;
 4//1;
 5/5=2,8=3,13=1,38=5/2,8;
 6/7=2,8=2,9=2,10=2,28=1/1;
 7/29=1/1,2,3,16;
 1/10=7,14=-1,26=4/3(2);
 2/29=3/2;
 99//99;
 2/29=3/2;
 3/5=1,6=6,7=1,11=2,16=1,25=1,30=1,71=1,74=-5,75=-5/1,2,3;
 4/5=5,16=3,69=1/1;
 5/5=2,8=3,13=1,38=5/2,8;
 7//1,2,3,16;
 1/14=-1,26=4/3(-5);
 2/29=3/2;
 6/7=2,8=2,9=2,10=2,19=2,28=1/1;
 99/9=1/99;
 Leave Link    1 at Fri Aug 23 16:06:56 2019, MaxMem=  2684354560 cpu:         0.6
 (Enter /soft/gaussian/09-e.01/g09/l101.exe)
 --------
 comment:
 --------
 Symbolic Z-matrix:
 Charge =  0 Multiplicity = 2
 C
 H                    1    R1
 H                    1    R2       2    A2
 H                    1    R3       2    A3       3    D3       0
 H                    1    R4       2    A4       3    D4       0
 X                    5    R5       1    A5       2    D5       0
 H                    5    R6       6    A6       1    D6       0
       Variables:
  R1                    1.0828                   
  R2                    1.0828                   
  A2                  119.9276                   
  R3                    1.0828                   
  A3                  119.9369                   
  D3                  175.0075                   
  R4                    2.6037                   
  A4                   89.3904                   
  D4                  268.3302                   
  D6                  179.8778                   
  A6                   89.9416                   
       Constants:
  R5                    1.                       
  A5                   90.                       
  D5                  180.                       
  R6                    0.8829                   
 
 NAtoms=      6 NQM=        6 NQMF=       0 NMMI=      0 NMMIF=      0
                NMic=       0 NMicF=      0.
                    Isotopes and Nuclear Properties:
 (Nuclear quadrupole moments (NQMom) in fm**2, nuclear magnetic moments (NMagM)
  in nuclear magnetons)

  Atom         1           2           3           4           5           6
 IAtWgt=          12           1           1           1           1           1
 AtmWgt=  12.0000000   1.0078250   1.0078250   1.0078250   1.0078250   1.0078250
 NucSpn=           0           1           1           1           1           1
 AtZEff=   0.0000000   0.0000000   0.0000000   0.0000000   0.0000000   0.0000000
 NQMom=    0.0000000   0.0000000   0.0000000   0.0000000   0.0000000   0.0000000
 NMagM=    0.0000000   2.7928460   2.7928460   2.7928460   2.7928460   2.7928460
 AtZNuc=   6.0000000   1.0000000   1.0000000   1.0000000   1.0000000   1.0000000
 Leave Link  101 at Fri Aug 23 16:06:56 2019, MaxMem=  2684354560 cpu:         0.6
 (Enter /soft/gaussian/09-e.01/g09/l103.exe)

 GradGradGradGradGradGradGradGradGradGradGradGradGradGradGradGradGradGrad
 Berny optimization.
 Initialization pass.
                       ----------------------------
                       !    Initial Parameters    !
                       ! (Angstroms and Degrees)  !
 ----------------------                            ----------------------
 !      Name          Value   Derivative information (Atomic Units)     !
 ------------------------------------------------------------------------
 !       R1          1.0828   estimate D2E/DX2                          !
 !       R2          1.0828   estimate D2E/DX2                          !
 !       A2        119.9276   estimate D2E/DX2                          !
 !       R3          1.0828   estimate D2E/DX2                          !
 !       A3        119.9369   estimate D2E/DX2                          !
 !       D3        175.0075   estimate D2E/DX2                          !
 !       R4          2.6037   estimate D2E/DX2                          !
 !       A4         89.3904   estimate D2E/DX2                          !
 !       D4        268.3302   estimate D2E/DX2                          !
 !       D6        179.8778   estimate D2E/DX2                          !
 !       A6         89.9416   estimate D2E/DX2                          !
 !       R5          1.0      Frozen                                    !
 !       A5         90.0      Frozen                                    !
 !       D5        180.0      Frozen                                    !
 !       R6          0.8829   Frozen                                    !
 ------------------------------------------------------------------------
 Trust Radius=3.00D-01 FncErr=1.00D-07 GrdErr=1.00D-06
 Number of steps in this run=     25 maximum allowed number of steps=    100.
 GradGradGradGradGradGradGradGradGradGradGradGradGradGradGradGradGradGrad

 Leave Link  103 at Fri Aug 23 16:06:56 2019, MaxMem=  2684354560 cpu:         0.1
 (Enter /soft/gaussian/09-e.01/g09/l202.exe)
 ---------------------------------------------------------------------------------------------------
                            Z-MATRIX (ANGSTROMS AND DEGREES)
   CD    Cent   Atom    N1       Length/X        N2       Alpha/Y        N3        Beta/Z          J
 ---------------------------------------------------------------------------------------------------
      1      1  C 
      2      2  H        1   1.082800(     1)
      3      3  H        1   1.082800(     2)      2  119.928(     7)
      4      4  H        1   1.082800(     3)      2  119.937(     8)      3  175.008(    12)      0
      5      5  H        1   2.603700(     4)      2   89.390(     9)      3  268.330(    13)      0
      6         X        5   1.000000(     5)      1   90.000(    10)      2  180.000(    14)      0
      7      6  H        5   0.882900(     6)      6   89.942(    11)      1  179.878(    15)      0
 ---------------------------------------------------------------------------------------------------
                         Z-Matrix orientation:                         
 ---------------------------------------------------------------------
 Center     Atomic      Atomic             Coordinates (Angstroms)
 Number     Number       Type             X           Y           Z
 ---------------------------------------------------------------------
      1          6           0        0.000000    0.000000    0.000000
      2          1           0        0.000000    0.000000    1.082800
      3          1           0        0.938416    0.000000   -0.540215
      4          1           0       -0.934768   -0.081658   -0.540367
      5          1           0       -0.075866    2.602447    0.027702
      6         -1           0       -0.076176    2.613082   -0.972242
      7          1           0       -0.099710    3.484984    0.036195
 ---------------------------------------------------------------------
                    Distance matrix (angstroms):
                    1          2          3          4          5
     1  C    0.000000
     2  H    1.082800   0.000000
     3  H    1.082800   1.874780   0.000000
     4  H    1.082800   1.874868   1.874963   0.000000
     5  H    2.603700   2.809220   2.850268   2.874863   0.000000
     6  X    2.789131   3.325236   2.836237   2.861000   1.000000
     7  H    3.486598   3.640115   3.681721   3.708192   0.882900
                    6          7
     6  X    0.000000
     7  H    1.333309   0.000000
 Stoichiometry    CH5(2)
 Framework group  C1[X(CH5)]
 Deg. of freedom    12
 Full point group                 C1      NOp   1
 Largest Abelian subgroup         C1      NOp   1
 Largest concise Abelian subgroup C1      NOp   1
                         Standard orientation:                         
 ---------------------------------------------------------------------
 Center     Atomic      Atomic             Coordinates (Angstroms)
 Number     Number       Type             X           Y           Z
 ---------------------------------------------------------------------
      1          6           0        0.546231    0.000168    0.002276
      2          1           0        0.530159   -0.351410    1.026283
      3          1           0        0.579559    1.062687   -0.203632
      4          1           0        0.610662   -0.710523   -0.812110
      5          1           0       -2.057440   -0.001615   -0.009911
      6          1           0       -2.940327   -0.000146   -0.014284
 ---------------------------------------------------------------------
 Rotational constants (GHZ):    142.7738129     27.0181620     27.0137351
 Leave Link  202 at Fri Aug 23 16:06:56 2019, MaxMem=  2684354560 cpu:         0.2
 (Enter /soft/gaussian/09-e.01/g09/l301.exe)
 Standard basis: 6-31G(d) (6D, 7F)
 Ernie: Thresh=  0.10000D-02 Tol=  0.10000D-05 Strict=F.
 There are    25 symmetry adapted cartesian basis functions of A   symmetry.
 There are    25 symmetry adapted basis functions of A   symmetry.
    25 basis functions,    48 primitive gaussians,    25 cartesian basis functions
     6 alpha electrons        5 beta electrons
       nuclear repulsion energy        13.3629193234 Hartrees.
 IExCor=  402 DFT=T Ex+Corr=B3LYP ExCW=0 ScaHFX=  0.200000
 ScaDFX=  0.800000  0.720000  1.000000  0.810000 ScalE2=  1.000000  1.000000
 IRadAn=      5 IRanWt=     -1 IRanGd=            0 ICorTp=0 IEmpDi=  4
 NAtoms=    6 NActive=    6 NUniq=    6 SFac= 1.00D+00 NAtFMM=   60 NAOKFM=F Big=F
 Integral buffers will be    131072 words long.
 Raffenetti 2 integral format.
 Two-electron integral symmetry is turned on.
 Leave Link  301 at Fri Aug 23 16:06:56 2019, MaxMem=  2684354560 cpu:         0.6
 (Enter /soft/gaussian/09-e.01/g09/l302.exe)
 NPDir=0 NMtPBC=     1 NCelOv=     1 NCel=       1 NClECP=     1 NCelD=      1
         NCelK=      1 NCelE2=     1 NClLst=     1 CellRange=     0.0.
 One-electron integrals computed using PRISM.
 NBasis=    25 RedAO= T EigKep=  2.64D-02  NBF=    25
 NBsUse=    25 1.00D-06 EigRej= -1.00D+00 NBFU=    25
 Precomputing XC quadrature grid using
 IXCGrd= 4 IRadAn=           5 IRanWt=          -1 IRanGd=           0 AccXCQ= 0.00D+00.
 Generated NRdTot=       0 NPtTot=           0 NUsed=           0 NTot=          32
 NSgBfM=    25    25    25    25    25 MxSgAt=     6 MxSgA2=     6.
 Leave Link  302 at Fri Aug 23 16:06:56 2019, MaxMem=  2684354560 cpu:         1.6
 (Enter /soft/gaussian/09-e.01/g09/l303.exe)
 DipDrv:  MaxL=1.
 Leave Link  303 at Fri Aug 23 16:06:56 2019, MaxMem=  2684354560 cpu:         0.2
 (Enter /soft/gaussian/09-e.01/g09/l401.exe)
 ExpMin= 1.61D-01 ExpMax= 3.05D+03 ExpMxC= 4.57D+02 IAcc=3 IRadAn=         5 AccDes= 0.00D+00
 Harris functional with IExCor=  402 and IRadAn=       5 diagonalized for initial guess.
 HarFok:  IExCor=  402 AccDes= 0.00D+00 IRadAn=         5 IDoV= 1 UseB2=F ITyADJ=14
 ICtDFT=  3500011 ScaDFX=  1.000000  1.000000  1.000000  1.000000
 FoFCou: FMM=F IPFlag=           0 FMFlag=      100000 FMFlg1=           0
         NFxFlg=           0 DoJE=T BraDBF=F KetDBF=T FulRan=T
         wScrn=  0.000000 ICntrl=     500 IOpCl=  0 I1Cent=   200000004 NGrid=           0
         NMat0=    1 NMatS0=      1 NMatT0=    0 NMatD0=    1 NMtDS0=    0 NMtDT0=    0
 Petite list used in FoFCou.
 Harris En= -40.9982873742576    
 JPrj=0 DoOrth=F DoCkMO=F.
 Initial guess <Sx>= 0.0000 <Sy>= 0.0000 <Sz>= 0.5000 <S**2>= 0.7500 S= 0.5000
 Leave Link  401 at Fri Aug 23 16:06:57 2019, MaxMem=  2684354560 cpu:         2.0
 (Enter /soft/gaussian/09-e.01/g09/l502.exe)
 UHF open shell SCF:
 Using DIIS extrapolation, IDIIS=  1040.
 Integral symmetry usage will be decided dynamically.
 Keep R1 and R2 ints in memory in canonical form, NReq=976418.
 IVT=        8268 IEndB=        8268 NGot=  2684354560 MDV=  2684240343
 LenX=  2684240343 LenY=  2684239277
 Requested convergence on RMS density matrix=1.00D-08 within  64 cycles.
 Requested convergence on MAX density matrix=1.00D-06.
 Requested convergence on             energy=1.00D-06.
 No special actions if energy rises.
 FoFCou: FMM=F IPFlag=           0 FMFlag=           0 FMFlg1=           0
         NFxFlg=           0 DoJE=F BraDBF=F KetDBF=F FulRan=T
         wScrn=  0.000000 ICntrl=     600 IOpCl=  0 I1Cent=           0 NGrid=           0
         NMat0=    1 NMatS0=    325 NMatT0=    0 NMatD0=    1 NMtDS0=    0 NMtDT0=    0
 Symmetry not used in FoFCou.
 Integral accuracy reduced to 1.0D-05 until final iterations.

 Cycle   1  Pass 0  IDiag  1:
 E= -40.9589925574507    
 DIIS: error= 5.30D-02 at cycle   1 NSaved=   1.
 NSaved= 1 IEnMin= 1 EnMin= -40.9589925574507     IErMin= 1 ErrMin= 5.30D-02
 ErrMax= 5.30D-02  0.00D+00 EMaxC= 1.00D-01 BMatC= 1.53D-01 BMatP= 1.53D-01
 IDIUse=3 WtCom= 4.70D-01 WtEn= 5.30D-01
 Coeff-Com:  0.100D+01
 Coeff-En:   0.100D+01
 Coeff:      0.100D+01
 Gap=     0.226 Goal=   None    Shift=    0.000
 Gap=     0.432 Goal=   None    Shift=    0.000
 GapD=    0.226 DampG=1.000 DampE=0.500 DampFc=0.5000 IDamp=-1.
 Damping current iteration by 5.00D-01
 RMSDP=1.44D-02 MaxDP=1.54D-01              OVMax= 1.40D-01

 Cycle   2  Pass 0  IDiag  1:
 E= -40.9815448766463     Delta-E=       -0.022552319196 Rises=F Damp=T
 DIIS: error= 8.75D-03 at cycle   2 NSaved=   2.
 NSaved= 2 IEnMin= 2 EnMin= -40.9815448766463     IErMin= 2 ErrMin= 8.75D-03
 ErrMax= 8.75D-03  0.00D+00 EMaxC= 1.00D-01 BMatC= 6.67D-03 BMatP= 1.53D-01
 IDIUse=3 WtCom= 9.13D-01 WtEn= 8.75D-02
 Coeff-Com: -0.637D-02 0.101D+01
 Coeff-En:   0.000D+00 0.100D+01
 Coeff:     -0.581D-02 0.101D+01
 Gap=     0.307 Goal=   None    Shift=    0.000
 Gap=     0.355 Goal=   None    Shift=    0.000
 RMSDP=2.23D-03 MaxDP=1.70D-02 DE=-2.26D-02 OVMax= 9.00D-02

 Cycle   3  Pass 0  IDiag  1:
 E= -41.0048540022547     Delta-E=       -0.023309125608 Rises=F Damp=F
 DIIS: error= 2.08D-03 at cycle   3 NSaved=   3.
 NSaved= 3 IEnMin= 3 EnMin= -41.0048540022547     IErMin= 3 ErrMin= 2.08D-03
 ErrMax= 2.08D-03  0.00D+00 EMaxC= 1.00D-01 BMatC= 2.11D-04 BMatP= 6.67D-03
 IDIUse=3 WtCom= 9.79D-01 WtEn= 2.08D-02
 Coeff-Com: -0.238D-01 0.689D-01 0.955D+00
 Coeff-En:   0.000D+00 0.000D+00 0.100D+01
 Coeff:     -0.233D-01 0.675D-01 0.956D+00
 Gap=     0.307 Goal=   None    Shift=    0.000
 Gap=     0.336 Goal=   None    Shift=    0.000
 RMSDP=3.47D-04 MaxDP=3.24D-03 DE=-2.33D-02 OVMax= 4.70D-03

 Cycle   4  Pass 0  IDiag  1:
 E= -41.0049438589324     Delta-E=       -0.000089856678 Rises=F Damp=F
 DIIS: error= 3.44D-04 at cycle   4 NSaved=   4.
 NSaved= 4 IEnMin= 4 EnMin= -41.0049438589324     IErMin= 4 ErrMin= 3.44D-04
 ErrMax= 3.44D-04  0.00D+00 EMaxC= 1.00D-01 BMatC= 1.04D-05 BMatP= 2.11D-04
 IDIUse=3 WtCom= 9.97D-01 WtEn= 3.44D-03
 Coeff-Com:  0.350D-02-0.259D-01-0.162D+00 0.118D+01
 Coeff-En:   0.000D+00 0.000D+00 0.000D+00 0.100D+01
 Coeff:      0.349D-02-0.258D-01-0.162D+00 0.118D+01
 Gap=     0.308 Goal=   None    Shift=    0.000
 Gap=     0.336 Goal=   None    Shift=    0.000
 RMSDP=1.42D-04 MaxDP=1.18D-03 DE=-8.99D-05 OVMax= 1.41D-03

 Cycle   5  Pass 0  IDiag  1:
 E= -41.0049516658839     Delta-E=       -0.000007806951 Rises=F Damp=F
 DIIS: error= 1.52D-04 at cycle   5 NSaved=   5.
 NSaved= 5 IEnMin= 5 EnMin= -41.0049516658839     IErMin= 5 ErrMin= 1.52D-04
 ErrMax= 1.52D-04  0.00D+00 EMaxC= 1.00D-01 BMatC= 9.19D-07 BMatP= 1.04D-05
 IDIUse=3 WtCom= 9.98D-01 WtEn= 1.52D-03
 Coeff-Com:  0.872D-03-0.194D-02-0.555D-01-0.292D-01 0.109D+01
 Coeff-En:   0.000D+00 0.000D+00 0.000D+00 0.000D+00 0.100D+01
 Coeff:      0.871D-03-0.194D-02-0.554D-01-0.292D-01 0.109D+01
 Gap=     0.308 Goal=   None    Shift=    0.000
 Gap=     0.337 Goal=   None    Shift=    0.000
 RMSDP=4.09D-05 MaxDP=3.11D-04 DE=-7.81D-06 OVMax= 5.47D-04

 Cycle   6  Pass 0  IDiag  1:
 E= -41.0049522738718     Delta-E=       -0.000000607988 Rises=F Damp=F
 DIIS: error= 6.82D-05 at cycle   6 NSaved=   6.
 NSaved= 6 IEnMin= 6 EnMin= -41.0049522738718     IErMin= 6 ErrMin= 6.82D-05
 ErrMax= 6.82D-05  0.00D+00 EMaxC= 1.00D-01 BMatC= 8.44D-08 BMatP= 9.19D-07
 IDIUse=1 WtCom= 1.00D+00 WtEn= 0.00D+00
 Coeff-Com: -0.960D-05 0.155D-02 0.965D-03-0.965D-01 0.223D+00 0.871D+00
 Coeff:     -0.960D-05 0.155D-02 0.965D-03-0.965D-01 0.223D+00 0.871D+00
 Gap=     0.308 Goal=   None    Shift=    0.000
 Gap=     0.337 Goal=   None    Shift=    0.000
 RMSDP=1.03D-05 MaxDP=1.08D-04 DE=-6.08D-07 OVMax= 2.02D-04

 Cycle   7  Pass 0  IDiag  1:
 E= -41.0049523222468     Delta-E=       -0.000000048375 Rises=F Damp=F
 DIIS: error= 1.14D-05 at cycle   7 NSaved=   7.
 NSaved= 7 IEnMin= 7 EnMin= -41.0049523222468     IErMin= 7 ErrMin= 1.14D-05
 ErrMax= 1.14D-05  0.00D+00 EMaxC= 1.00D-01 BMatC= 2.85D-09 BMatP= 8.44D-08
 IDIUse=1 WtCom= 1.00D+00 WtEn= 0.00D+00
 Coeff-Com: -0.228D-06 0.114D-03 0.302D-02-0.417D-02-0.404D-01 0.475D-01
 Coeff-Com:  0.994D+00
 Coeff:     -0.228D-06 0.114D-03 0.302D-02-0.417D-02-0.404D-01 0.475D-01
 Coeff:      0.994D+00
 Gap=     0.308 Goal=   None    Shift=    0.000
 Gap=     0.337 Goal=   None    Shift=    0.000
 RMSDP=2.19D-06 MaxDP=2.45D-05 DE=-4.84D-08 OVMax= 3.68D-05

 Initial convergence to 1.0D-05 achieved.  Increase integral accuracy.
 Cycle   8  Pass 1  IDiag  1:
 E= -41.0049519049317     Delta-E=        0.000000417315 Rises=F Damp=F
 DIIS: error= 3.02D-06 at cycle   1 NSaved=   1.
 NSaved= 1 IEnMin= 1 EnMin= -41.0049519049317     IErMin= 1 ErrMin= 3.02D-06
 ErrMax= 3.02D-06  0.00D+00 EMaxC= 1.00D-01 BMatC= 3.39D-10 BMatP= 3.39D-10
 IDIUse=1 WtCom= 1.00D+00 WtEn= 0.00D+00
 Coeff-Com:  0.100D+01
 Coeff:      0.100D+01
 Gap=     0.308 Goal=   None    Shift=    0.000
 Gap=     0.337 Goal=   None    Shift=    0.000
 RMSDP=2.19D-06 MaxDP=2.45D-05 DE= 4.17D-07 OVMax= 1.08D-05

 Cycle   9  Pass 1  IDiag  1:
 E= -41.0049519051629     Delta-E=       -0.000000000231 Rises=F Damp=F
 DIIS: error= 1.54D-06 at cycle   2 NSaved=   2.
 NSaved= 2 IEnMin= 2 EnMin= -41.0049519051629     IErMin= 2 ErrMin= 1.54D-06
 ErrMax= 1.54D-06  0.00D+00 EMaxC= 1.00D-01 BMatC= 6.08D-11 BMatP= 3.39D-10
 IDIUse=1 WtCom= 1.00D+00 WtEn= 0.00D+00
 Coeff-Com: -0.157D-01 0.102D+01
 Coeff:     -0.157D-01 0.102D+01
 Gap=     0.308 Goal=   None    Shift=    0.000
 Gap=     0.337 Goal=   None    Shift=    0.000
 RMSDP=3.05D-07 MaxDP=3.06D-06 DE=-2.31D-10 OVMax= 5.28D-06

 Cycle  10  Pass 1  IDiag  1:
 E= -41.0049519052134     Delta-E=       -0.000000000050 Rises=F Damp=F
 DIIS: error= 7.73D-07 at cycle   3 NSaved=   3.
 NSaved= 3 IEnMin= 3 EnMin= -41.0049519052134     IErMin= 3 ErrMin= 7.73D-07
 ErrMax= 7.73D-07  0.00D+00 EMaxC= 1.00D-01 BMatC= 1.62D-11 BMatP= 6.08D-11
 IDIUse=1 WtCom= 1.00D+00 WtEn= 0.00D+00
 Coeff-Com: -0.194D+00 0.516D-01 0.114D+01
 Coeff:     -0.194D+00 0.516D-01 0.114D+01
 Gap=     0.308 Goal=   None    Shift=    0.000
 Gap=     0.337 Goal=   None    Shift=    0.000
 RMSDP=2.09D-07 MaxDP=2.13D-06 DE=-5.05D-11 OVMax= 4.20D-06

 Cycle  11  Pass 1  IDiag  1:
 E= -41.0049519052294     Delta-E=       -0.000000000016 Rises=F Damp=F
 DIIS: error= 2.38D-07 at cycle   4 NSaved=   4.
 NSaved= 4 IEnMin= 4 EnMin= -41.0049519052294     IErMin= 4 ErrMin= 2.38D-07
 ErrMax= 2.38D-07  0.00D+00 EMaxC= 1.00D-01 BMatC= 3.28D-12 BMatP= 1.62D-11
 IDIUse=1 WtCom= 1.00D+00 WtEn= 0.00D+00
 Coeff-Com: -0.749D-01-0.990D-01 0.433D+00 0.741D+00
 Coeff:     -0.749D-01-0.990D-01 0.433D+00 0.741D+00
 Gap=     0.308 Goal=   None    Shift=    0.000
 Gap=     0.337 Goal=   None    Shift=    0.000
 RMSDP=6.59D-08 MaxDP=7.00D-07 DE=-1.61D-11 OVMax= 1.09D-06

 Cycle  12  Pass 1  IDiag  1:
 E= -41.0049519052312     Delta-E=       -0.000000000002 Rises=F Damp=F
 DIIS: error= 6.14D-08 at cycle   5 NSaved=   5.
 NSaved= 5 IEnMin= 5 EnMin= -41.0049519052312     IErMin= 5 ErrMin= 6.14D-08
 ErrMax= 6.14D-08  0.00D+00 EMaxC= 1.00D-01 BMatC= 2.64D-13 BMatP= 3.28D-12
 IDIUse=1 WtCom= 1.00D+00 WtEn= 0.00D+00
 Coeff-Com:  0.129D-01-0.322D-01-0.988D-01 0.180D+00 0.938D+00
 Coeff:      0.129D-01-0.322D-01-0.988D-01 0.180D+00 0.938D+00
 Gap=     0.308 Goal=   None    Shift=    0.000
 Gap=     0.337 Goal=   None    Shift=    0.000
 RMSDP=2.31D-08 MaxDP=2.42D-07 DE=-1.72D-12 OVMax= 4.41D-07

 Cycle  13  Pass 1  IDiag  1:
 E= -41.0049519052313     Delta-E=       -0.000000000000 Rises=F Damp=F
 DIIS: error= 9.28D-09 at cycle   6 NSaved=   6.
 NSaved= 6 IEnMin= 6 EnMin= -41.0049519052313     IErMin= 6 ErrMin= 9.28D-09
 ErrMax= 9.28D-09  0.00D+00 EMaxC= 1.00D-01 BMatC= 2.30D-15 BMatP= 2.64D-13
 IDIUse=1 WtCom= 1.00D+00 WtEn= 0.00D+00
 Coeff-Com:  0.621D-03 0.219D-02-0.714D-02-0.139D-01 0.410D-02 0.101D+01
 Coeff:      0.621D-03 0.219D-02-0.714D-02-0.139D-01 0.410D-02 0.101D+01
 Gap=     0.308 Goal=   None    Shift=    0.000
 Gap=     0.337 Goal=   None    Shift=    0.000
 RMSDP=2.65D-09 MaxDP=2.83D-08 DE=-1.85D-13 OVMax= 4.83D-08

 SCF Done:  E(UB3LYP) =  -41.0049519052     A.U. after   13 cycles
            NFock= 13  Conv=0.26D-08     -V/T= 2.0131
 <Sx>= 0.0000 <Sy>= 0.0000 <Sz>= 0.5000 <S**2>= 0.7538 S= 0.5019
 <L.S>= 0.000000000000E+00
 KE= 4.047323116248D+01 PE=-1.206264291647D+02 EE= 2.578532677350D+01
 Annihilation of the first spin contaminant:
 S**2 before annihilation     0.7538,   after     0.7500
 Leave Link  502 at Fri Aug 23 16:06:57 2019, MaxMem=  2684354560 cpu:         6.7
 (Enter /soft/gaussian/09-e.01/g09/l508.exe)
 QCSCF skips out because SCF is already converged.
 Leave Link  508 at Fri Aug 23 16:06:57 2019, MaxMem=  2684354560 cpu:         0.0
 (Enter /soft/gaussian/09-e.01/g09/l601.exe)
 Copying SCF densities to generalized density rwf, IOpCl= 1 IROHF=0.

 **********************************************************************

            Population analysis using the SCF density.

 **********************************************************************

 Orbital symmetries:
 Alpha Orbitals:
       Occupied  (A) (A) (A) (A) (A) (A)
       Virtual   (A) (A) (A) (A) (A) (A) (A) (A) (A) (A) (A) (A)
                 (A) (A) (A) (A) (A) (A) (A)
 Beta  Orbitals:
       Occupied  (A) (A) (A) (A) (A)
       Virtual   (A) (A) (A) (A) (A) (A) (A) (A) (A) (A) (A) (A)
                 (A) (A) (A) (A) (A) (A) (A) (A)
 The electronic state is 2-A.
 Alpha  occ. eigenvalues --  -10.19766  -0.68670  -0.42134  -0.42131  -0.40097
 Alpha  occ. eigenvalues --   -0.22870
 Alpha virt. eigenvalues --    0.07924   0.11334   0.17850   0.17851   0.54005
 Alpha virt. eigenvalues --    0.54009   0.54955   0.62377   0.78062   0.90970
 Alpha virt. eigenvalues --    0.90973   0.95933   1.11824   1.64454   1.64466
 Alpha virt. eigenvalues --    2.00571   2.18173   2.18191   4.08967
  Beta  occ. eigenvalues --  -10.18378  -0.64677  -0.41189  -0.41185  -0.39784
  Beta virt. eigenvalues --   -0.06125   0.09102   0.12953   0.18398   0.18400
  Beta virt. eigenvalues --    0.54825   0.54829   0.60310   0.65056   0.79882
  Beta virt. eigenvalues --    0.91455   0.91458   0.98463   1.12447   1.71451
  Beta virt. eigenvalues --    1.71462   2.09054   2.19291   2.19309   4.12649
          Condensed to atoms (all electrons):
               1          2          3          4          5          6
     1  C    5.337462   0.380040   0.380074   0.380088   0.014473  -0.005442
     2  H    0.380040   0.510450  -0.029426  -0.029405   0.000072   0.000023
     3  H    0.380074  -0.029426   0.510502  -0.029376   0.000044   0.000036
     4  H    0.380088  -0.029405  -0.029376   0.510550   0.000031   0.000042
     5  H    0.014473   0.000072   0.000044   0.000031   0.612606   0.367898
     6  H   -0.005442   0.000023   0.000036   0.000042   0.367898   0.660083
          Atomic-Atomic Spin Densities.
               1          2          3          4          5          6
     1  C    1.146684  -0.009023  -0.009001  -0.008990   0.012301  -0.005924
     2  H   -0.009023  -0.043192   0.000954   0.000952  -0.000060   0.000019
     3  H   -0.009001   0.000954  -0.043229   0.000950  -0.000057   0.000016
     4  H   -0.008990   0.000952   0.000950  -0.043251  -0.000056   0.000014
     5  H    0.012301  -0.000060  -0.000057  -0.000056  -0.014479  -0.009202
     6  H   -0.005924   0.000019   0.000016   0.000014  -0.009202   0.051685
 Mulliken charges and spin densities:
               1          2
     1  C   -0.486695   1.126047
     2  H    0.168246  -0.050351
     3  H    0.168145  -0.050368
     4  H    0.168069  -0.050382
     5  H    0.004876  -0.011554
     6  H   -0.022641   0.036608
 Sum of Mulliken charges =  -0.00000   1.00000
 Mulliken charges and spin densities with hydrogens summed into heavy atoms:
               1          2
     1  C   -0.000000   1.000000
 Electronic spatial extent (au):  <R**2>=             90.1691
 Charge=             -0.0000 electrons
 Dipole moment (field-independent basis, Debye):
    X=              0.3595    Y=              0.0002    Z=              0.0047  Tot=              0.3596
 Quadrupole moment (field-independent basis, Debye-Ang):
   XX=            -10.8536   YY=             -9.1711   ZZ=             -9.1742
   XY=             -0.0051   XZ=             -0.0706   YZ=             -0.0001
 Traceless Quadrupole moment (field-independent basis, Debye-Ang):
   XX=             -1.1207   YY=              0.5619   ZZ=              0.5588
   XY=             -0.0051   XZ=             -0.0706   YZ=             -0.0001
 Octapole moment (field-independent basis, Debye-Ang**2):
  XXX=              0.8030  YYY=              0.6895  ZZZ=              0.4798  XYY=              1.7806
  XXY=             -0.0021  XXZ=             -0.0818  XZZ=              1.7431  YZZ=             -0.6850
  YYZ=             -0.4371  XYZ=              0.0310
 Hexadecapole moment (field-independent basis, Debye-Ang**3):
 XXXX=            -98.4374 YYYY=            -15.9574 ZZZZ=            -15.9475 XXXY=             -0.0262
 XXXZ=             -0.0956 YYYX=              0.3907 YYYZ=              0.0023 ZZZX=              0.0892
 ZZZY=             -0.0084 XXYY=            -21.1057 XXZZ=            -21.1438 YYZZ=             -5.3229
 XXYZ=              0.0363 YYXZ=             -0.3193 ZZXY=             -0.4045
 N-N= 1.336291932344D+01 E-N=-1.206264291653D+02  KE= 4.047323116248D+01
                          Isotropic Fermi Contact Couplings
        Atom                 a.u.       MegaHertz       Gauss      10(-4) cm-1
     1  C(13)              0.10800     121.41443      43.32369      40.49950
     2  H(1)              -0.01551     -69.31460     -24.73317     -23.12086
     3  H(1)              -0.01551     -69.32122     -24.73553     -23.12307
     4  H(1)              -0.01551     -69.32444     -24.73668     -23.12414
     5  H(1)              -0.00401     -17.90437      -6.38873      -5.97226
     6  H(1)               0.01164      52.00735      18.55751      17.34778
 --------------------------------------------------------
       Center         ----  Spin Dipole Couplings  ----
                      3XX-RR        3YY-RR        3ZZ-RR
 --------------------------------------------------------
     1   Atom        1.073164     -0.538094     -0.535070
     2   Atom       -0.005554     -0.055962      0.061516
     3   Atom       -0.005596      0.071709     -0.066113
     4   Atom       -0.005298     -0.007501      0.012799
     5   Atom        0.031337     -0.015666     -0.015671
     6   Atom        0.006169     -0.003084     -0.003085
 --------------------------------------------------------
                        XY            XZ            YZ
 --------------------------------------------------------
     1   Atom        0.004334      0.069906      0.000186
     2   Atom        0.001333     -0.000504     -0.045702
     3   Atom        0.003395      0.002231     -0.027842
     4   Atom       -0.004796     -0.002847      0.073543
     5   Atom       -0.000008     -0.000050      0.000006
     6   Atom        0.000002     -0.000021      0.000001
 --------------------------------------------------------


 ---------------------------------------------------------------------------------
              Anisotropic Spin Dipole Couplings in Principal Axis System
 ---------------------------------------------------------------------------------

       Atom             a.u.   MegaHertz   Gauss  10(-4) cm-1        Axes

              Baa    -0.5381   -72.209   -25.766   -24.086 -0.0231  0.8776  0.4789
     1 C(13)  Bbb    -0.5381   -72.208   -25.766   -24.086 -0.0368 -0.4795  0.8768
              Bcc     1.0762   144.417    51.532    48.172  0.9991  0.0027  0.0433
 
              Baa    -0.0717   -38.237   -13.644   -12.755 -0.0166  0.9457  0.3245
     2 H(1)   Bbb    -0.0055    -2.959    -1.056    -0.987  0.9998  0.0121  0.0158
              Bcc     0.0772    41.196    14.700    13.742 -0.0110 -0.3247  0.9458
 
              Baa    -0.0716   -38.227   -13.641   -12.751 -0.0430  0.1915  0.9806
     3 H(1)   Bbb    -0.0056    -2.975    -1.062    -0.992  0.9985 -0.0263  0.0489
              Bcc     0.0772    41.202    14.702    13.744  0.0351  0.9811 -0.1900
 
              Baa    -0.0716   -38.222   -13.639   -12.750  0.0264  0.7543 -0.6561
     4 H(1)   Bbb    -0.0056    -2.984    -1.065    -0.995  0.9976  0.0222  0.0656
              Bcc     0.0772    41.206    14.703    13.745 -0.0641  0.6562  0.7519
 
              Baa    -0.0157    -8.363    -2.984    -2.790  0.0008 -0.5160  0.8566
     5 H(1)   Bbb    -0.0157    -8.357    -2.982    -2.787  0.0007  0.8566  0.5160
              Bcc     0.0313    16.720     5.966     5.577  1.0000 -0.0002 -0.0011
 
              Baa    -0.0031    -1.647    -0.588    -0.549  0.0021 -0.5272  0.8498
     6 H(1)   Bbb    -0.0031    -1.645    -0.587    -0.549  0.0010  0.8498  0.5272
              Bcc     0.0062     3.292     1.175     1.098  1.0000  0.0003 -0.0023
 

 ---------------------------------------------------------------------------------

 No NMR shielding tensors so no spin-rotation constants.
 Leave Link  601 at Fri Aug 23 16:06:58 2019, MaxMem=  2684354560 cpu:         3.1
 (Enter /soft/gaussian/09-e.01/g09/l701.exe)
 Compute integral first derivatives.
 ... and contract with generalized density number  0.
 Leave Link  701 at Fri Aug 23 16:06:58 2019, MaxMem=  2684354560 cpu:         1.7
 (Enter /soft/gaussian/09-e.01/g09/l702.exe)
 L702 exits ... SP integral derivatives will be done elsewhere.
 Leave Link  702 at Fri Aug 23 16:06:58 2019, MaxMem=  2684354560 cpu:         0.1
 (Enter /soft/gaussian/09-e.01/g09/l703.exe)
 Compute integral first derivatives, UseDBF=F ICtDFT=           0.
 Integral derivatives from FoFJK, PRISM(SPDF).
 Calling FoFJK, ICntrl=      2127 FMM=F ISym2X=0 I1Cent= 0 IOpClX= 1 NMat=1 NMatS=1 NMatT=0.
 FoFJK:  IHMeth= 1 ICntrl=    2127 DoSepK=F KAlg= 0 I1Cent=   0 FoldK=F
 IRaf=         0 NMat=   1 IRICut=       1 DoRegI=T DoRafI=F ISym2E= 0.
 FoFCou: FMM=F IPFlag=           0 FMFlag=      100000 FMFlg1=         800
         NFxFlg=           0 DoJE=F BraDBF=F KetDBF=F FulRan=T
         wScrn=  0.000000 ICntrl=    2127 IOpCl=  1 I1Cent=           0 NGrid=           0
         NMat0=    1 NMatS0=      1 NMatT0=    0 NMatD0=    1 NMtDS0=    0 NMtDT0=    0
 Symmetry not used in FoFCou.
 Leave Link  703 at Fri Aug 23 16:06:58 2019, MaxMem=  2684354560 cpu:         2.2
 (Enter /soft/gaussian/09-e.01/g09/l716.exe)
 Dipole        = 1.41455568D-01 9.59316163D-05 1.83383457D-03
 ***** Axes restored to original set *****
 -------------------------------------------------------------------
 Center     Atomic                   Forces (Hartrees/Bohr)
 Number     Number              X              Y              Z
 -------------------------------------------------------------------
      1        6           0.000015886    0.000143679    0.000048841
      2        1          -0.000001964   -0.000075446    0.000011823
      3        1           0.000004357   -0.000015310   -0.000012598
      4        1          -0.000007350    0.000017704   -0.000008898
      5        1          -0.001706857    0.062609960    0.000545626
      6        1           0.001695929   -0.062680587   -0.000584794
 -------------------------------------------------------------------
 Cartesian Forces:  Max     0.062680587 RMS     0.020890352
 -----------------------------------------------------------------------------------------------
                       Internal Coordinate Forces (Hartree/Bohr or radian)
  Cent   Atom   N1       Length/X         N2         Alpha/Y        N3         Beta/Z          J
 -----------------------------------------------------------------------------------------------
      1  C 
      2  H        1   0.000012(     1)
      3  H        1   0.000010(     2)      2   0.000018(     7)
      4  H        1   0.000009(     3)      2   0.000010(     8)      3   0.000032(    12)     0
      5  H        1  -0.000071(     4)      2   0.000158(     9)      3  -0.000060(    13)     0
         X        5   0.000000(     5)      1   0.000031(    10)      2  -0.000000(    14)     0
      6  H        5  -0.062706(     6)      6   0.000031(    11)      1  -0.000004(    15)     0
 -----------------------------------------------------------------------------------------------
 Internal  Forces:  Max     0.062706251 RMS     0.016190761
 Force constants in Cartesian coordinates: 
                1             2             3             4             5 
      1  0.723967D+00
      2  0.223751D-01  0.230706D+00
      3 -0.254978D-03  0.145540D-01  0.722690D+00
      4 -0.114374D+00 -0.248310D-02  0.301268D-03  0.762721D-01
      5 -0.248369D-02 -0.700716D-01 -0.122257D-01  0.174223D-02  0.490209D-01
      6  0.000000D+00  0.000000D+00 -0.356581D+00  0.000000D+00  0.000000D+00
      7 -0.296323D+00 -0.168687D-02  0.104755D+00  0.190948D-01 -0.224206D-03
      8 -0.122852D-01 -0.707598D-01  0.316898D-02 -0.449396D-03  0.105480D-01
      9  0.104676D+00 -0.293029D-02 -0.174610D+00  0.331698D-01 -0.389472D-03
     10 -0.295651D+00 -0.182054D-01 -0.104629D+00  0.189775D-01  0.959961D-03
     11 -0.762467D-02 -0.716873D-01 -0.547680D-02  0.118446D-02  0.106717D-01
     12 -0.104250D+00 -0.115590D-01 -0.174759D+00 -0.330077D-01 -0.327328D-02
     13 -0.370942D-01 -0.567413D-03 -0.178125D-03  0.297062D-04  0.570423D-05
     14 -0.507697D-03 -0.182049D-01  0.166964D-03  0.579865D-05 -0.168957D-03
     15 -0.176562D-03  0.142620D-03 -0.362287D-01 -0.463402D-03  0.158884D-01
     16  0.194754D-01  0.567683D-03  0.542547D-05  0.000000D+00  0.000000D+00
     17  0.526118D-03  0.173321D-04 -0.187411D-03  0.000000D+00  0.000000D+00
     18  0.534453D-05 -0.207288D-03  0.194885D-01  0.000000D+00  0.000000D+00
                6             7             8             9            10 
      6  0.356581D+00
      7  0.000000D+00  0.286803D+00
      8  0.000000D+00  0.132217D-02  0.490532D-01
      9  0.000000D+00 -0.121213D+00  0.229676D-02  0.146020D+00
     10  0.000000D+00 -0.954560D-02 -0.235654D-02 -0.165818D-01  0.285149D+00
     11  0.000000D+00  0.590125D-03  0.106728D-01  0.102512D-02  0.195772D-01
     12  0.000000D+00  0.164235D-01  0.246369D-02  0.285296D-01  0.120611D+00
     13  0.000000D+00 -0.292292D-04  0.137690D-01 -0.507745D-04  0.107053D-02
     14  0.000000D+00 -0.121753D-05  0.485794D-03 -0.211498D-05  0.248284D-04
     15  0.000000D+00  0.343318D-04 -0.792943D-02  0.596383D-04  0.599319D-03
     16  0.000000D+00  0.000000D+00  0.000000D+00  0.000000D+00  0.000000D+00
     17  0.000000D+00  0.000000D+00  0.000000D+00  0.000000D+00  0.000000D+00
     18  0.000000D+00  0.000000D+00  0.000000D+00  0.000000D+00  0.000000D+00
               11            12            13            14            15 
     11  0.506588D-01
     12  0.123638D-01  0.146070D+00
     13 -0.137271D-01  0.222505D-03  0.113116D+00
     14 -0.315949D-03  0.479499D-05 -0.409459D-02  0.265970D+00
     15 -0.791212D-02  0.158903D-03 -0.384914D-04  0.145422D-02  0.112995D+00
     16  0.000000D+00  0.000000D+00 -0.770929D-01  0.457288D-02  0.448051D-04
     17  0.000000D+00  0.000000D+00  0.461444D-02 -0.247766D+00 -0.164374D-02
     18  0.000000D+00  0.000000D+00  0.448860D-04 -0.162386D-02 -0.769843D-01
               16            17            18 
     16  0.576175D-01
     17 -0.514056D-02  0.247749D+00
     18 -0.502306D-04  0.183115D-02  0.574959D-01
 Force constants in internal coordinates: 
                1             2             3             4             5 
      1  0.356581D+00
      2  0.000000D+00  0.356581D+00
      3  0.000000D+00  0.000000D+00  0.356581D+00
      4  0.000000D+00  0.000000D+00  0.000000D+00  0.181883D-01
      5  0.000000D+00  0.000000D+00  0.000000D+00  0.000000D+00  0.000000D+00
      6  0.000000D+00  0.000000D+00  0.000000D+00  0.000000D+00  0.000000D+00
      7  0.000000D+00  0.000000D+00  0.000000D+00  0.000000D+00  0.000000D+00
      8  0.000000D+00  0.000000D+00  0.000000D+00  0.000000D+00  0.000000D+00
      9  0.000000D+00  0.000000D+00  0.000000D+00  0.000000D+00  0.000000D+00
     10  0.000000D+00  0.000000D+00  0.000000D+00  0.000000D+00  0.000000D+00
     11  0.000000D+00  0.000000D+00  0.000000D+00  0.000000D+00  0.000000D+00
     12  0.000000D+00  0.000000D+00  0.000000D+00  0.000000D+00  0.000000D+00
     13  0.000000D+00  0.000000D+00  0.000000D+00  0.000000D+00  0.000000D+00
     14  0.000000D+00  0.000000D+00  0.000000D+00  0.000000D+00  0.000000D+00
     15  0.000000D+00  0.000000D+00  0.000000D+00  0.000000D+00  0.000000D+00
                6             7             8             9            10 
      6  0.247906D+00
      7  0.000000D+00  0.319219D+00
      8  0.000000D+00  0.159051D+00  0.319279D+00
      9  0.000000D+00  0.692850D-03  0.184624D-02  0.239972D+00
     10  0.000000D+00  0.000000D+00  0.000000D+00  0.000000D+00  0.160001D+00
     11  0.000000D+00  0.000000D+00  0.000000D+00  0.000000D+00  0.160001D+00
     12  0.000000D+00 -0.103167D-01 -0.762299D-02  0.692268D-01  0.000000D+00
     13  0.000000D+00  0.590274D-03 -0.258544D-02 -0.366350D-04  0.362071D-05
     14  0.000000D+00  0.000000D+00  0.000000D+00  0.000000D+00 -0.341247D-03
     15  0.000000D+00  0.000000D+00  0.000000D+00 -0.179828D-05  0.245708D-05
               11            12            13            14            15 
     11  0.160002D+00
     12  0.000000D+00  0.154191D+00
     13  0.362072D-05 -0.120144D+00  0.240546D+00
     14 -0.341248D-03  0.000000D+00  0.000000D+00  0.000000D+00
     15  0.210925D-05  0.000000D+00 -0.129627D-05  0.163081D-03  0.160003D+00
 Leave Link  716 at Fri Aug 23 16:06:58 2019, MaxMem=  2684354560 cpu:         0.2
 (Enter /soft/gaussian/09-e.01/g09/l103.exe)

 GradGradGradGradGradGradGradGradGradGradGradGradGradGradGradGradGradGrad
 Berny optimization.
 Search for a local minimum.
 Step number   1 out of a maximum of   25
 All quantities printed in internal units (Hartrees-Bohrs-Radians)
 Second derivative matrix not updated -- first step.
 The second derivative matrix:
                          R1        R2        A2        R3        A3
           R1           0.35658
           R2           0.00000   0.35658
           A2           0.00000   0.00000   0.31922
           R3           0.00000   0.00000  -0.00000   0.35658
           A3           0.00000   0.00000   0.15905  -0.00000   0.31928
           D3          -0.00000  -0.00000  -0.01032  -0.00000  -0.00762
           R4          -0.00000   0.00000  -0.00000   0.00000  -0.00000
           A4           0.00000  -0.00000   0.00069  -0.00000   0.00185
           D4           0.00000  -0.00000   0.00059   0.00000  -0.00259
           D6           0.00000   0.00000   0.00000   0.00000  -0.00000
           A6           0.00000   0.00000  -0.00000   0.00000  -0.00000
           R5          -0.00000  -0.00000   0.00000   0.00000  -0.00000
           A5           0.00000   0.00000   0.00000   0.00000   0.00000
           D5          -0.00000   0.00000  -0.00000   0.00000  -0.00000
           R6           0.00000  -0.00000   0.00000   0.00000   0.00000
                          D3        R4        A4        D4        D6
           D3           0.15419
           R4          -0.00000   0.01819
           A4           0.06923   0.00000   0.23997
           D4          -0.12014   0.00000  -0.00004   0.24055
           D6          -0.00000  -0.00000  -0.00000  -0.00000   0.16000
           A6          -0.00000  -0.00000  -0.00000   0.00000   0.00000
           R5          -0.00000   0.00000   0.00000  -0.00000   0.00000
           A5           0.00000  -0.00000  -0.00000   0.00000   0.00000
           D5           0.00000   0.00000  -0.00000  -0.00000   0.00016
           R6           0.00000  -0.00000   0.00000  -0.00000  -0.00000
                          A6        R5        A5        D5        R6
           A6           0.16000
           R5          -0.00000   0.00000
           A5           0.16000  -0.00000   0.16000
           D5          -0.00034   0.00000  -0.00034   0.00000
           R6          -0.00000  -0.00000  -0.00000   0.00000   0.24791
 ITU=  0
     Eigenvalues ---    0.01819   0.05179   0.16000   0.16000   0.16015
     Eigenvalues ---    0.24008   0.34233   0.35658   0.35658   0.35658
     Eigenvalues ---    0.478861000.000001000.000001000.000001000.00000
 RFO step:  Lambda=-4.26360218D-07 EMin= 1.81882522D-02
 Linear search not attempted -- first point.
 Variable       Old X    -DE/DX   Delta X   Delta X   Delta X     New X
                                 (Linear)    (Quad)   (Total)
    R1        2.04620   0.00001   0.00000   0.00003   0.00003   2.04623
    R2        2.04620   0.00001   0.00000   0.00003   0.00003   2.04622
    A2        2.09313   0.00002   0.00000   0.00004   0.00004   2.09317
    R3        2.04620   0.00001   0.00000   0.00003   0.00003   2.04622
    A3        2.09329   0.00001   0.00000  -0.00001  -0.00001   2.09328
    D3        3.05446   0.00003   0.00000  -0.00058  -0.00058   3.05388
    R4        4.92028  -0.00007   0.00000  -0.00389  -0.00389   4.91639
    A4        1.56016   0.00016   0.00000   0.00083   0.00083   1.56098
    D4        4.68325  -0.00006   0.00000  -0.00054  -0.00054   4.68271
    D6        3.13946  -0.00000   0.00000  -0.00003  -0.00003   3.13943
    A6        1.56978   0.00003   0.00000   0.00019   0.00019   1.56997
    R5        1.88973   0.00000   0.00000   0.00000   0.00000   1.88973
    A5        1.57080   0.00003   0.00000   0.00000   0.00000   1.57080
    D5        3.14159  -0.00000   0.00000   0.00000   0.00000   3.14159
    R6        1.66844  -0.06271   0.00000   0.00000   0.00000   1.66844
         Item               Value     Threshold  Converged?
 Maximum Force            0.000158     0.000450     YES
 RMS     Force            0.000058     0.000300     YES
 Maximum Displacement     0.003887     0.001800     NO 
 RMS     Displacement     0.001047     0.001200     YES
 Predicted change in Energy=-2.131801D-07
 Lowest energy point so far.  Saving SCF results.
 GradGradGradGradGradGradGradGradGradGradGradGradGradGradGradGradGradGrad

 Leave Link  103 at Fri Aug 23 16:06:58 2019, MaxMem=  2684354560 cpu:         0.1
 (Enter /soft/gaussian/09-e.01/g09/l202.exe)
 ---------------------------------------------------------------------------------------------------
                            Z-MATRIX (ANGSTROMS AND DEGREES)
   CD    Cent   Atom    N1       Length/X        N2       Alpha/Y        N3        Beta/Z          J
 ---------------------------------------------------------------------------------------------------
      1      1  C 
      2      2  H        1   1.082818(     1)
      3      3  H        1   1.082815(     2)      2  119.930(     7)
      4      4  H        1   1.082814(     3)      2  119.936(     8)      3  174.974(    12)      0
      5      5  H        1   2.601643(     4)      2   89.438(     9)      3  268.299(    13)      0
      6         X        5   1.000000(     5)      1   90.000(    10)      2  180.000(    14)      0
      7      6  H        5   0.882900(     6)      6   89.953(    11)      1  179.876(    15)      0
 ---------------------------------------------------------------------------------------------------
                         Z-Matrix orientation:                         
 ---------------------------------------------------------------------
 Center     Atomic      Atomic             Coordinates (Angstroms)
 Number     Number       Type             X           Y           Z
 ---------------------------------------------------------------------
      1          6           0        0.000000    0.000000    0.000000
      2          1           0        0.000000    0.000000    1.082818
      3          1           0        0.938405    0.000000   -0.540263
      4          1           0       -0.934740   -0.082198   -0.540361
      5          1           0       -0.077201    2.600372    0.025532
      6         -1           0       -0.077492    2.610182   -0.974420
      7          1           0       -0.101495    3.482902    0.033467
 ---------------------------------------------------------------------
                    Distance matrix (angstroms):
                    1          2          3          4          5
     1  C    0.000000
     2  H    1.082818   0.000000
     3  H    1.082815   1.874832   0.000000
     4  H    1.082814   1.874888   1.874948   0.000000
     5  H    2.601643   2.808158   2.848423   2.872594   0.000000
     6  X    2.787212   3.324346   2.834359   2.858705   1.000000
     7  H    3.484542   3.638962   3.679832   3.705876   0.882900
                    6          7
     6  X    0.000000
     7  H    1.333436   0.000000
 Stoichiometry    CH5(2)
 Framework group  C1[X(CH5)]
 Deg. of freedom    12
 Full point group                 C1      NOp   1
 RotChk:  IX=0 Diff= 2.96D-02
 Largest Abelian subgroup         C1      NOp   1
 Largest concise Abelian subgroup C1      NOp   1
                         Standard orientation:                         
 ---------------------------------------------------------------------
 Center     Atomic      Atomic             Coordinates (Angstroms)
 Number     Number       Type             X           Y           Z
 ---------------------------------------------------------------------
      1          6           0        0.545808    0.000120    0.002247
      2          1           0        0.530669   -0.372763    1.018723
      3          1           0        0.579194    1.066706   -0.181514
      4          1           0        0.609791   -0.693419   -0.826846
      5          1           0       -2.055807   -0.001387   -0.009854
      6          1           0       -2.938696    0.000143   -0.013990
 ---------------------------------------------------------------------
 Rotational constants (GHZ):    142.7668675     27.0497025     27.0454904
 Leave Link  202 at Fri Aug 23 16:06:58 2019, MaxMem=  2684354560 cpu:         0.1
 (Enter /soft/gaussian/09-e.01/g09/l301.exe)
 Standard basis: 6-31G(d) (6D, 7F)
 Ernie: Thresh=  0.10000D-02 Tol=  0.10000D-05 Strict=F.
 There are    25 symmetry adapted cartesian basis functions of A   symmetry.
 There are    25 symmetry adapted basis functions of A   symmetry.
    25 basis functions,    48 primitive gaussians,    25 cartesian basis functions
     6 alpha electrons        5 beta electrons
       nuclear repulsion energy        13.3648321800 Hartrees.
 IExCor=  402 DFT=T Ex+Corr=B3LYP ExCW=0 ScaHFX=  0.200000
 ScaDFX=  0.800000  0.720000  1.000000  0.810000 ScalE2=  1.000000  1.000000
 IRadAn=      5 IRanWt=     -1 IRanGd=            0 ICorTp=0 IEmpDi=  4
 NAtoms=    6 NActive=    6 NUniq=    6 SFac= 1.00D+00 NAtFMM=   60 NAOKFM=F Big=F
 Integral buffers will be    131072 words long.
 Raffenetti 2 integral format.
 Two-electron integral symmetry is turned on.
 Leave Link  301 at Fri Aug 23 16:06:58 2019, MaxMem=  2684354560 cpu:         0.5
 (Enter /soft/gaussian/09-e.01/g09/l302.exe)
 NPDir=0 NMtPBC=     1 NCelOv=     1 NCel=       1 NClECP=     1 NCelD=      1
         NCelK=      1 NCelE2=     1 NClLst=     1 CellRange=     0.0.
 One-electron integrals computed using PRISM.
 NBasis=    25 RedAO= T EigKep=  2.64D-02  NBF=    25
 NBsUse=    25 1.00D-06 EigRej= -1.00D+00 NBFU=    25
 Precomputing XC quadrature grid using
 IXCGrd= 4 IRadAn=           5 IRanWt=          -1 IRanGd=           0 AccXCQ= 0.00D+00.
 Generated NRdTot=       0 NPtTot=           0 NUsed=           0 NTot=          32
 NSgBfM=    25    25    25    25    25 MxSgAt=     6 MxSgA2=     6.
 Leave Link  302 at Fri Aug 23 16:06:58 2019, MaxMem=  2684354560 cpu:         1.6
 (Enter /soft/gaussian/09-e.01/g09/l303.exe)
 DipDrv:  MaxL=1.
 Leave Link  303 at Fri Aug 23 16:06:58 2019, MaxMem=  2684354560 cpu:         0.2
 (Enter /soft/gaussian/09-e.01/g09/l401.exe)
 Initial guess from the checkpoint file:  "/blues/gpfs/home/elliott/Packages/PACC/moldriver/rcdriver/rundir/RXN/CH3.H2/MDUSDFXREFXETQ/0_0/2_1/UHFFFAOYSA-N/CH4.H/HXBDELFRWIQQII/0_0/1_2/UHFFFAOYSA-N/2/ezvlpJU/SCANS/R6/01/RUN/OPTI/A02/Gau-35792.chk"
 B after Tr=     0.000000   -0.000000    0.000000
         Rot=    0.999946   -0.010430   -0.000072    0.000002 Ang=  -1.20 deg.
 Guess basis will be translated and rotated to current coordinates.
 JPrj=2 DoOrth=T DoCkMO=T.
 Initial guess <Sx>= 0.0000 <Sy>= 0.0000 <Sz>= 0.5000 <S**2>= 0.7538 S= 0.5019
 Leave Link  401 at Fri Aug 23 16:06:59 2019, MaxMem=  2684354560 cpu:         0.7
 (Enter /soft/gaussian/09-e.01/g09/l502.exe)
 UHF open shell SCF:
 Using DIIS extrapolation, IDIIS=  1040.
 Integral symmetry usage will be decided dynamically.
 Keep R1 and R2 ints in memory in canonical form, NReq=976418.
 IVT=        8268 IEndB=        8268 NGot=  2684354560 MDV=  2684240343
 LenX=  2684240343 LenY=  2684239277
 Requested convergence on RMS density matrix=1.00D-08 within  64 cycles.
 Requested convergence on MAX density matrix=1.00D-06.
 Requested convergence on             energy=1.00D-06.
 No special actions if energy rises.
 FoFCou: FMM=F IPFlag=           0 FMFlag=           0 FMFlg1=           0
         NFxFlg=           0 DoJE=F BraDBF=F KetDBF=F FulRan=T
         wScrn=  0.000000 ICntrl=     600 IOpCl=  0 I1Cent=           0 NGrid=           0
         NMat0=    1 NMatS0=    325 NMatT0=    0 NMatD0=    1 NMtDS0=    0 NMtDT0=    0
 Symmetry not used in FoFCou.

 Cycle   1  Pass 1  IDiag  1:
 E= -41.0049522266941    
 DIIS: error= 4.72D-05 at cycle   1 NSaved=   1.
 NSaved= 1 IEnMin= 1 EnMin= -41.0049522266941     IErMin= 1 ErrMin= 4.72D-05
 ErrMax= 4.72D-05  0.00D+00 EMaxC= 1.00D-01 BMatC= 1.17D-07 BMatP= 1.17D-07
 IDIUse=1 WtCom= 1.00D+00 WtEn= 0.00D+00
 Coeff-Com:  0.100D+01
 Coeff:      0.100D+01
 Gap=     2.682 Goal=   None    Shift=    0.000
 Gap=     2.540 Goal=   None    Shift=    0.000
 RMSDP=1.23D-05 MaxDP=1.18D-04              OVMax= 2.13D-04

 Cycle   2  Pass 1  IDiag  1:
 E= -41.0049523072836     Delta-E=       -0.000000080590 Rises=F Damp=F
 DIIS: error= 1.11D-05 at cycle   2 NSaved=   2.
 NSaved= 2 IEnMin= 2 EnMin= -41.0049523072836     IErMin= 2 ErrMin= 1.11D-05
 ErrMax= 1.11D-05  0.00D+00 EMaxC= 1.00D-01 BMatC= 4.20D-09 BMatP= 1.17D-07
 IDIUse=1 WtCom= 1.00D+00 WtEn= 0.00D+00
 Coeff-Com: -0.106D+00 0.111D+01
 Coeff:     -0.106D+00 0.111D+01
 Gap=     0.308 Goal=   None    Shift=    0.000
 Gap=     0.337 Goal=   None    Shift=    0.000
 RMSDP=4.00D-06 MaxDP=4.04D-05 DE=-8.06D-08 OVMax= 7.37D-05

 Cycle   3  Pass 1  IDiag  1:
 E= -41.0049523118555     Delta-E=       -0.000000004572 Rises=F Damp=F
 DIIS: error= 2.73D-06 at cycle   3 NSaved=   3.
 NSaved= 3 IEnMin= 3 EnMin= -41.0049523118555     IErMin= 3 ErrMin= 2.73D-06
 ErrMax= 2.73D-06  0.00D+00 EMaxC= 1.00D-01 BMatC= 4.24D-10 BMatP= 4.20D-09
 IDIUse=1 WtCom= 1.00D+00 WtEn= 0.00D+00
 Coeff-Com: -0.159D-01-0.674D-01 0.108D+01
 Coeff:     -0.159D-01-0.674D-01 0.108D+01
 Gap=     0.308 Goal=   None    Shift=    0.000
 Gap=     0.337 Goal=   None    Shift=    0.000
 RMSDP=9.64D-07 MaxDP=8.16D-06 DE=-4.57D-09 OVMax= 1.98D-05

 Cycle   4  Pass 1  IDiag  1:
 E= -41.0049523121794     Delta-E=       -0.000000000324 Rises=F Damp=F
 DIIS: error= 1.37D-06 at cycle   4 NSaved=   4.
 NSaved= 4 IEnMin= 4 EnMin= -41.0049523121794     IErMin= 4 ErrMin= 1.37D-06
 ErrMax= 1.37D-06  0.00D+00 EMaxC= 1.00D-01 BMatC= 1.26D-10 BMatP= 4.24D-10
 IDIUse=1 WtCom= 1.00D+00 WtEn= 0.00D+00
 Coeff-Com:  0.862D-02-0.156D+00 0.382D+00 0.765D+00
 Coeff:      0.862D-02-0.156D+00 0.382D+00 0.765D+00
 Gap=     0.308 Goal=   None    Shift=    0.000
 Gap=     0.337 Goal=   None    Shift=    0.000
 RMSDP=3.64D-07 MaxDP=2.77D-06 DE=-3.24D-10 OVMax= 5.15D-06

 Cycle   5  Pass 1  IDiag  1:
 E= -41.0049523122276     Delta-E=       -0.000000000048 Rises=F Damp=F
 DIIS: error= 3.93D-07 at cycle   5 NSaved=   5.
 NSaved= 5 IEnMin= 5 EnMin= -41.0049523122276     IErMin= 5 ErrMin= 3.93D-07
 ErrMax= 3.93D-07  0.00D+00 EMaxC= 1.00D-01 BMatC= 1.23D-11 BMatP= 1.26D-10
 IDIUse=1 WtCom= 1.00D+00 WtEn= 0.00D+00
 Coeff-Com:  0.497D-02-0.564D-01 0.736D-01 0.295D+00 0.683D+00
 Coeff:      0.497D-02-0.564D-01 0.736D-01 0.295D+00 0.683D+00
 Gap=     0.308 Goal=   None    Shift=    0.000
 Gap=     0.337 Goal=   None    Shift=    0.000
 RMSDP=8.61D-08 MaxDP=7.51D-07 DE=-4.82D-11 OVMax= 1.04D-06

 Cycle   6  Pass 1  IDiag  1:
 E= -41.0049523122321     Delta-E=       -0.000000000004 Rises=F Damp=F
 DIIS: error= 2.29D-07 at cycle   6 NSaved=   6.
 NSaved= 6 IEnMin= 6 EnMin= -41.0049523122321     IErMin= 6 ErrMin= 2.29D-07
 ErrMax= 2.29D-07  0.00D+00 EMaxC= 1.00D-01 BMatC= 8.60D-13 BMatP= 1.23D-11
 IDIUse=1 WtCom= 1.00D+00 WtEn= 0.00D+00
 Coeff-Com: -0.194D-02 0.290D-01-0.604D-01-0.146D+00-0.897D-01 0.127D+01
 Coeff:     -0.194D-02 0.290D-01-0.604D-01-0.146D+00-0.897D-01 0.127D+01
 Gap=     0.308 Goal=   None    Shift=    0.000
 Gap=     0.337 Goal=   None    Shift=    0.000
 RMSDP=4.87D-08 MaxDP=5.82D-07 DE=-4.46D-12 OVMax= 1.10D-06

 Cycle   7  Pass 1  IDiag  1:
 E= -41.0049523122331     Delta-E=       -0.000000000001 Rises=F Damp=F
 DIIS: error= 8.55D-08 at cycle   7 NSaved=   7.
 NSaved= 7 IEnMin= 7 EnMin= -41.0049523122331     IErMin= 7 ErrMin= 8.55D-08
 ErrMax= 8.55D-08  0.00D+00 EMaxC= 1.00D-01 BMatC= 8.47D-14 BMatP= 8.60D-13
 IDIUse=1 WtCom= 1.00D+00 WtEn= 0.00D+00
 Coeff-Com: -0.642D-03 0.748D-02-0.106D-01-0.378D-01-0.828D-01 0.225D-01
 Coeff-Com:  0.110D+01
 Coeff:     -0.642D-03 0.748D-02-0.106D-01-0.378D-01-0.828D-01 0.225D-01
 Coeff:      0.110D+01
 Gap=     0.308 Goal=   None    Shift=    0.000
 Gap=     0.337 Goal=   None    Shift=    0.000
 RMSDP=1.76D-08 MaxDP=2.24D-07 DE=-1.01D-12 OVMax= 4.34D-07

 Cycle   8  Pass 1  IDiag  1:
 E= -41.0049523122331     Delta-E=       -0.000000000000 Rises=F Damp=F
 DIIS: error= 2.26D-08 at cycle   8 NSaved=   8.
 NSaved= 8 IEnMin= 8 EnMin= -41.0049523122331     IErMin= 8 ErrMin= 2.26D-08
 ErrMax= 2.26D-08  0.00D+00 EMaxC= 1.00D-01 BMatC= 5.77D-15 BMatP= 8.47D-14
 IDIUse=1 WtCom= 1.00D+00 WtEn= 0.00D+00
 Coeff-Com:  0.123D-03-0.200D-02 0.441D-02 0.108D-01 0.302D-04-0.139D+00
 Coeff-Com:  0.147D+00 0.978D+00
 Coeff:      0.123D-03-0.200D-02 0.441D-02 0.108D-01 0.302D-04-0.139D+00
 Coeff:      0.147D+00 0.978D+00
 Gap=     0.308 Goal=   None    Shift=    0.000
 Gap=     0.337 Goal=   None    Shift=    0.000
 RMSDP=4.38D-09 MaxDP=6.13D-08 DE=-6.39D-14 OVMax= 1.02D-07

 SCF Done:  E(UB3LYP) =  -41.0049523122     A.U. after    8 cycles
            NFock=  8  Conv=0.44D-08     -V/T= 2.0131
 <Sx>= 0.0000 <Sy>= 0.0000 <Sz>= 0.5000 <S**2>= 0.7538 S= 0.5019
 <L.S>= 0.000000000000E+00
 KE= 4.047320995225D+01 PE=-1.206301935779D+02 EE= 2.578719913344D+01
 Annihilation of the first spin contaminant:
 S**2 before annihilation     0.7538,   after     0.7500
 Leave Link  502 at Fri Aug 23 16:06:59 2019, MaxMem=  2684354560 cpu:         6.2
 (Enter /soft/gaussian/09-e.01/g09/l508.exe)
 QCSCF skips out because SCF is already converged.
 Leave Link  508 at Fri Aug 23 16:06:59 2019, MaxMem=  2684354560 cpu:         0.0
 (Enter /soft/gaussian/09-e.01/g09/l701.exe)
 Compute integral first derivatives.
 ... and contract with generalized density number  0.
 Leave Link  701 at Fri Aug 23 16:06:59 2019, MaxMem=  2684354560 cpu:         1.6
 (Enter /soft/gaussian/09-e.01/g09/l702.exe)
 L702 exits ... SP integral derivatives will be done elsewhere.
 Leave Link  702 at Fri Aug 23 16:06:59 2019, MaxMem=  2684354560 cpu:         0.1
 (Enter /soft/gaussian/09-e.01/g09/l703.exe)
 Compute integral first derivatives, UseDBF=F ICtDFT=           0.
 Integral derivatives from FoFJK, PRISM(SPDF).
 Calling FoFJK, ICntrl=      2127 FMM=F ISym2X=0 I1Cent= 0 IOpClX= 1 NMat=1 NMatS=1 NMatT=0.
 FoFJK:  IHMeth= 1 ICntrl=    2127 DoSepK=F KAlg= 0 I1Cent=   0 FoldK=F
 IRaf=         0 NMat=   1 IRICut=       1 DoRegI=T DoRafI=F ISym2E= 0.
 FoFCou: FMM=F IPFlag=           0 FMFlag=      100000 FMFlg1=         800
         NFxFlg=           0 DoJE=F BraDBF=F KetDBF=F FulRan=T
         wScrn=  0.000000 ICntrl=    2127 IOpCl=  1 I1Cent=           0 NGrid=           0
         NMat0=    1 NMatS0=      1 NMatT0=    0 NMatD0=    1 NMtDS0=    0 NMtDT0=    0
 Symmetry not used in FoFCou.
 Leave Link  703 at Fri Aug 23 16:07:00 2019, MaxMem=  2684354560 cpu:         2.3
 (Enter /soft/gaussian/09-e.01/g09/l716.exe)
 Dipole        = 1.41842604D-01 5.71365703D-05 1.80643684D-03
 ***** Axes restored to original set *****
 -------------------------------------------------------------------
 Center     Atomic                   Forces (Hartrees/Bohr)
 Number     Number              X              Y              Z
 -------------------------------------------------------------------
      1        6           0.000013152    0.000135722    0.000044578
      2        1           0.000000745   -0.000073521   -0.000001144
      3        1          -0.000001624   -0.000014137   -0.000002815
      4        1          -0.000001478    0.000018876   -0.000002193
      5        1          -0.001738162    0.062598817    0.000507180
      6        1           0.001727366   -0.062665756   -0.000545606
 -------------------------------------------------------------------
 Cartesian Forces:  Max     0.062665756 RMS     0.020886193
 -----------------------------------------------------------------------------------------------
                       Internal Coordinate Forces (Hartree/Bohr or radian)
  Cent   Atom   N1       Length/X         N2         Alpha/Y        N3         Beta/Z          J
 -----------------------------------------------------------------------------------------------
      1  C 
      2  H        1  -0.000001(     1)
      3  H        1  -0.000000(     2)      2   0.000007(     7)
      4  H        1   0.000001(     3)      2   0.000004(     8)      3   0.000034(    12)     0
      5  H        1  -0.000067(     4)      2   0.000156(     9)      3  -0.000059(    13)     0
         X        5   0.000000(     5)      1   0.000030(    10)      2  -0.000000(    14)     0
      6  H        5  -0.062692(     6)      6   0.000030(    11)      1  -0.000004(    15)     0
 -----------------------------------------------------------------------------------------------
 Internal  Forces:  Max     0.062691930 RMS     0.016187059
 Leave Link  716 at Fri Aug 23 16:07:00 2019, MaxMem=  2684354560 cpu:         0.2
 (Enter /soft/gaussian/09-e.01/g09/l103.exe)

 GradGradGradGradGradGradGradGradGradGradGradGradGradGradGradGradGradGrad
 Berny optimization.
 Search for a local minimum.
 Step number   2 out of a maximum of   25
 All quantities printed in internal units (Hartrees-Bohrs-Radians)
 Update second derivatives using D2CorN and points    2
 DE= -4.07D-07 DEPred=-2.13D-07 R= 1.91D+00
 Trust test= 1.91D+00 RLast= 4.06D-03 DXMaxT set to 3.00D-01
 The second derivative matrix:
                          R1        R2        A2        R3        A3
           R1           0.35658
           R2           0.00000   0.35658
           A2           0.00000   0.00000   0.31922
           R3           0.00000   0.00000  -0.00000   0.35658
           A3           0.00000   0.00000   0.15905  -0.00000   0.31928
           D3          -0.00000  -0.00000  -0.01032  -0.00000  -0.00762
           R4          -0.00000   0.00000  -0.00000   0.00000  -0.00000
           A4           0.00000  -0.00000   0.00069  -0.00000   0.00185
           D4           0.00000  -0.00000   0.00059   0.00000  -0.00259
           D6           0.00000   0.00000   0.00000   0.00000  -0.00000
           A6           0.00000   0.00000  -0.00000   0.00000  -0.00000
           R5          -0.00000  -0.00000   0.00000   0.00000  -0.00000
           A5           0.00000   0.00000   0.00000   0.00000   0.00000
           D5          -0.00000   0.00000  -0.00000   0.00000  -0.00000
           R6           0.00000  -0.00000   0.00000   0.00000   0.00000
                          D3        R4        A4        D4        D6
           D3           0.15419
           R4          -0.00000   0.01819
           A4           0.06923   0.00000   0.23997
           D4          -0.12014   0.00000  -0.00004   0.24055
           D6          -0.00000  -0.00000  -0.00000  -0.00000   0.16000
           A6          -0.00000  -0.00000  -0.00000   0.00000   0.00000
           R5          -0.00000   0.00000   0.00000  -0.00000   0.00000
           A5           0.00000  -0.00000  -0.00000   0.00000   0.00000
           D5           0.00000   0.00000  -0.00000  -0.00000   0.00016
           R6           0.00000  -0.00000   0.00000  -0.00000  -0.00000
                          A6        R5        A5        D5        R6
           A6           0.16000
           R5          -0.00000   0.00000
           A5           0.16000  -0.00000   0.16000
           D5          -0.00034   0.00000  -0.00034   0.00000
           R6          -0.00000  -0.00000  -0.00000   0.00000   0.24791
 ITU=  0  0
     Eigenvalues ---    0.01819   0.05179   0.16000   0.16000   0.16015
     Eigenvalues ---    0.24008   0.34233   0.35658   0.35658   0.35658
     Eigenvalues ---    0.478861000.000001000.000001000.000001000.00000
 RFO step:  Lambda=-3.90547499D-07 EMin= 1.81882522D-02
 Skip linear search -- no minimum in search direction.
 Variable       Old X    -DE/DX   Delta X   Delta X   Delta X     New X
                                 (Linear)    (Quad)   (Total)
    R1        2.04623  -0.00000   0.00000  -0.00000  -0.00000   2.04623
    R2        2.04622  -0.00000   0.00000  -0.00000  -0.00000   2.04622
    A2        2.09317   0.00001   0.00000   0.00001   0.00001   2.09318
    R3        2.04622   0.00000   0.00000   0.00000   0.00000   2.04622
    A3        2.09328   0.00000   0.00000  -0.00001  -0.00001   2.09327
    D3        3.05388   0.00003   0.00000  -0.00055  -0.00055   3.05333
    R4        4.91639  -0.00007   0.00000  -0.00368  -0.00368   4.91271
    A4        1.56098   0.00016   0.00000   0.00081   0.00081   1.56179
    D4        4.68271  -0.00006   0.00000  -0.00052  -0.00052   4.68219
    D6        3.13943  -0.00000   0.00000  -0.00002  -0.00002   3.13941
    A6        1.56997   0.00003   0.00000   0.00019   0.00019   1.57016
    R5        1.88973   0.00000   0.00000   0.00000   0.00000   1.88973
    A5        1.57080   0.00003   0.00000   0.00000   0.00000   1.57080
    D5        3.14159  -0.00000   0.00000   0.00000   0.00000   3.14159
    R6        1.66844  -0.06269   0.00000   0.00000   0.00000   1.66844
         Item               Value     Threshold  Converged?
 Maximum Force            0.000156     0.000450     YES
 RMS     Force            0.000056     0.000300     YES
 Maximum Displacement     0.003682     0.001800     NO 
 RMS     Displacement     0.000994     0.001200     YES
 Predicted change in Energy=-1.952737D-07
 Lowest energy point so far.  Saving SCF results.
 GradGradGradGradGradGradGradGradGradGradGradGradGradGradGradGradGradGrad

 Leave Link  103 at Fri Aug 23 16:07:00 2019, MaxMem=  2684354560 cpu:         0.1
 (Enter /soft/gaussian/09-e.01/g09/l202.exe)
 ---------------------------------------------------------------------------------------------------
                            Z-MATRIX (ANGSTROMS AND DEGREES)
   CD    Cent   Atom    N1       Length/X        N2       Alpha/Y        N3        Beta/Z          J
 ---------------------------------------------------------------------------------------------------
      1      1  C 
      2      2  H        1   1.082816(     1)
      3      3  H        1   1.082815(     2)      2  119.931(     7)
      4      4  H        1   1.082815(     3)      2  119.935(     8)      3  174.943(    12)      0
      5      5  H        1   2.599695(     4)      2   89.484(     9)      3  268.270(    13)      0
      6         X        5   1.000000(     5)      1   90.000(    10)      2  180.000(    14)      0
      7      6  H        5   0.882900(     6)      6   89.963(    11)      1  179.875(    15)      0
 ---------------------------------------------------------------------------------------------------
                         Z-Matrix orientation:                         
 ---------------------------------------------------------------------
 Center     Atomic      Atomic             Coordinates (Angstroms)
 Number     Number       Type             X           Y           Z
 ---------------------------------------------------------------------
      1          6           0        0.000000    0.000000    0.000000
      2          1           0        0.000000    0.000000    1.082816
      3          1           0        0.938400    0.000000   -0.540271
      4          1           0       -0.934703   -0.082714   -0.540349
      5          1           0       -0.078496    2.598404    0.023410
      6         -1           0       -0.078768    2.607405   -0.976550
      7          1           0       -0.103229    3.480927    0.030794
 ---------------------------------------------------------------------
                    Distance matrix (angstroms):
                    1          2          3          4          5
     1  C    0.000000
     2  H    1.082816   0.000000
     3  H    1.082815   1.874835   0.000000
     4  H    1.082815   1.874880   1.874929   0.000000
     5  H    2.599695   2.807171   2.846668   2.870420   0.000000
     6  X    2.785393   3.323515   2.832584   2.856508   1.000000
     7  H    3.482593   3.637892   3.678037   3.703660   0.882900
                    6          7
     6  X    0.000000
     7  H    1.333559   0.000000
 Stoichiometry    CH5(2)
 Framework group  C1[X(CH5)]
 Deg. of freedom    12
 Full point group                 C1      NOp   1
 RotChk:  IX=0 Diff= 1.02D-02
 Largest Abelian subgroup         C1      NOp   1
 Largest concise Abelian subgroup C1      NOp   1
                         Standard orientation:                         
 ---------------------------------------------------------------------
 Center     Atomic      Atomic             Coordinates (Angstroms)
 Number     Number       Type             X           Y           Z
 ---------------------------------------------------------------------
      1          6           0        0.545407    0.000104    0.002213
      2          1           0        0.531186   -0.379990    1.016026
      3          1           0        0.578844    1.067960   -0.174007
      4          1           0        0.608940   -0.687526   -0.831825
      5          1           0       -2.054260   -0.001297   -0.009774
      6          1           0       -2.937150    0.000231   -0.013699
 ---------------------------------------------------------------------
 Rotational constants (GHZ):    142.7641106     27.0797198     27.0756636
 Leave Link  202 at Fri Aug 23 16:07:00 2019, MaxMem=  2684354560 cpu:         0.1
 (Enter /soft/gaussian/09-e.01/g09/l301.exe)
 Standard basis: 6-31G(d) (6D, 7F)
 Ernie: Thresh=  0.10000D-02 Tol=  0.10000D-05 Strict=F.
 There are    25 symmetry adapted cartesian basis functions of A   symmetry.
 There are    25 symmetry adapted basis functions of A   symmetry.
    25 basis functions,    48 primitive gaussians,    25 cartesian basis functions
     6 alpha electrons        5 beta electrons
       nuclear repulsion energy        13.3667795391 Hartrees.
 IExCor=  402 DFT=T Ex+Corr=B3LYP ExCW=0 ScaHFX=  0.200000
 ScaDFX=  0.800000  0.720000  1.000000  0.810000 ScalE2=  1.000000  1.000000
 IRadAn=      5 IRanWt=     -1 IRanGd=            0 ICorTp=0 IEmpDi=  4
 NAtoms=    6 NActive=    6 NUniq=    6 SFac= 1.00D+00 NAtFMM=   60 NAOKFM=F Big=F
 Integral buffers will be    131072 words long.
 Raffenetti 2 integral format.
 Two-electron integral symmetry is turned on.
 Leave Link  301 at Fri Aug 23 16:07:00 2019, MaxMem=  2684354560 cpu:         0.5
 (Enter /soft/gaussian/09-e.01/g09/l302.exe)
 NPDir=0 NMtPBC=     1 NCelOv=     1 NCel=       1 NClECP=     1 NCelD=      1
         NCelK=      1 NCelE2=     1 NClLst=     1 CellRange=     0.0.
 One-electron integrals computed using PRISM.
 NBasis=    25 RedAO= T EigKep=  2.64D-02  NBF=    25
 NBsUse=    25 1.00D-06 EigRej= -1.00D+00 NBFU=    25
 Precomputing XC quadrature grid using
 IXCGrd= 4 IRadAn=           5 IRanWt=          -1 IRanGd=           0 AccXCQ= 0.00D+00.
 Generated NRdTot=       0 NPtTot=           0 NUsed=           0 NTot=          32
 NSgBfM=    25    25    25    25    25 MxSgAt=     6 MxSgA2=     6.
 Leave Link  302 at Fri Aug 23 16:07:00 2019, MaxMem=  2684354560 cpu:         1.6
 (Enter /soft/gaussian/09-e.01/g09/l303.exe)
 DipDrv:  MaxL=1.
 Leave Link  303 at Fri Aug 23 16:07:00 2019, MaxMem=  2684354560 cpu:         0.2
 (Enter /soft/gaussian/09-e.01/g09/l401.exe)
 Initial guess from the checkpoint file:  "/blues/gpfs/home/elliott/Packages/PACC/moldriver/rcdriver/rundir/RXN/CH3.H2/MDUSDFXREFXETQ/0_0/2_1/UHFFFAOYSA-N/CH4.H/HXBDELFRWIQQII/0_0/1_2/UHFFFAOYSA-N/2/ezvlpJU/SCANS/R6/01/RUN/OPTI/A02/Gau-35792.chk"
 B after Tr=    -0.000000    0.000000    0.000000
         Rot=    0.999994   -0.003549   -0.000072    0.000001 Ang=  -0.41 deg.
 Guess basis will be translated and rotated to current coordinates.
 JPrj=2 DoOrth=T DoCkMO=T.
 Initial guess <Sx>= 0.0000 <Sy>= 0.0000 <Sz>= 0.5000 <S**2>= 0.7538 S= 0.5019
 Leave Link  401 at Fri Aug 23 16:07:00 2019, MaxMem=  2684354560 cpu:         0.7
 (Enter /soft/gaussian/09-e.01/g09/l502.exe)
 UHF open shell SCF:
 Using DIIS extrapolation, IDIIS=  1040.
 Integral symmetry usage will be decided dynamically.
 Keep R1 and R2 ints in memory in canonical form, NReq=976418.
 IVT=        8268 IEndB=        8268 NGot=  2684354560 MDV=  2684240343
 LenX=  2684240343 LenY=  2684239277
 Requested convergence on RMS density matrix=1.00D-08 within  64 cycles.
 Requested convergence on MAX density matrix=1.00D-06.
 Requested convergence on             energy=1.00D-06.
 No special actions if energy rises.
 FoFCou: FMM=F IPFlag=           0 FMFlag=           0 FMFlg1=           0
         NFxFlg=           0 DoJE=F BraDBF=F KetDBF=F FulRan=T
         wScrn=  0.000000 ICntrl=     600 IOpCl=  0 I1Cent=           0 NGrid=           0
         NMat0=    1 NMatS0=    325 NMatT0=    0 NMatD0=    1 NMtDS0=    0 NMtDT0=    0
 Symmetry not used in FoFCou.

 Cycle   1  Pass 1  IDiag  1:
 E= -41.0049526084816    
 DIIS: error= 4.71D-05 at cycle   1 NSaved=   1.
 NSaved= 1 IEnMin= 1 EnMin= -41.0049526084816     IErMin= 1 ErrMin= 4.71D-05
 ErrMax= 4.71D-05  0.00D+00 EMaxC= 1.00D-01 BMatC= 1.12D-07 BMatP= 1.12D-07
 IDIUse=1 WtCom= 1.00D+00 WtEn= 0.00D+00
 Coeff-Com:  0.100D+01
 Coeff:      0.100D+01
 Gap=     2.681 Goal=   None    Shift=    0.000
 Gap=     2.540 Goal=   None    Shift=    0.000
 RMSDP=1.20D-05 MaxDP=1.16D-04              OVMax= 2.17D-04

 Cycle   2  Pass 1  IDiag  1:
 E= -41.0049526855063     Delta-E=       -0.000000077025 Rises=F Damp=F
 DIIS: error= 1.10D-05 at cycle   2 NSaved=   2.
 NSaved= 2 IEnMin= 2 EnMin= -41.0049526855063     IErMin= 2 ErrMin= 1.10D-05
 ErrMax= 1.10D-05  0.00D+00 EMaxC= 1.00D-01 BMatC= 4.04D-09 BMatP= 1.12D-07
 IDIUse=1 WtCom= 1.00D+00 WtEn= 0.00D+00
 Coeff-Com: -0.108D+00 0.111D+01
 Coeff:     -0.108D+00 0.111D+01
 Gap=     0.308 Goal=   None    Shift=    0.000
 Gap=     0.336 Goal=   None    Shift=    0.000
 RMSDP=3.94D-06 MaxDP=3.95D-05 DE=-7.70D-08 OVMax= 7.46D-05

 Cycle   3  Pass 1  IDiag  1:
 E= -41.0049526899211     Delta-E=       -0.000000004415 Rises=F Damp=F
 DIIS: error= 2.72D-06 at cycle   3 NSaved=   3.
 NSaved= 3 IEnMin= 3 EnMin= -41.0049526899211     IErMin= 3 ErrMin= 2.72D-06
 ErrMax= 2.72D-06  0.00D+00 EMaxC= 1.00D-01 BMatC= 4.30D-10 BMatP= 4.04D-09
 IDIUse=1 WtCom= 1.00D+00 WtEn= 0.00D+00
 Coeff-Com: -0.184D-01-0.477D-01 0.107D+01
 Coeff:     -0.184D-01-0.477D-01 0.107D+01
 Gap=     0.308 Goal=   None    Shift=    0.000
 Gap=     0.336 Goal=   None    Shift=    0.000
 RMSDP=9.22D-07 MaxDP=7.90D-06 DE=-4.41D-09 OVMax= 1.98D-05

 Cycle   4  Pass 1  IDiag  1:
 E= -41.0049526902300     Delta-E=       -0.000000000309 Rises=F Damp=F
 DIIS: error= 1.28D-06 at cycle   4 NSaved=   4.
 NSaved= 4 IEnMin= 4 EnMin= -41.0049526902300     IErMin= 4 ErrMin= 1.28D-06
 ErrMax= 1.28D-06  0.00D+00 EMaxC= 1.00D-01 BMatC= 1.37D-10 BMatP= 4.30D-10
 IDIUse=1 WtCom= 1.00D+00 WtEn= 0.00D+00
 Coeff-Com:  0.929D-02-0.161D+00 0.393D+00 0.759D+00
 Coeff:      0.929D-02-0.161D+00 0.393D+00 0.759D+00
 Gap=     0.308 Goal=   None    Shift=    0.000
 Gap=     0.336 Goal=   None    Shift=    0.000
 RMSDP=3.68D-07 MaxDP=2.84D-06 DE=-3.09D-10 OVMax= 5.39D-06

 Cycle   5  Pass 1  IDiag  1:
 E= -41.0049526902804     Delta-E=       -0.000000000050 Rises=F Damp=F
 DIIS: error= 4.17D-07 at cycle   5 NSaved=   5.
 NSaved= 5 IEnMin= 5 EnMin= -41.0049526902804     IErMin= 5 ErrMin= 4.17D-07
 ErrMax= 4.17D-07  0.00D+00 EMaxC= 1.00D-01 BMatC= 1.15D-11 BMatP= 1.37D-10
 IDIUse=1 WtCom= 1.00D+00 WtEn= 0.00D+00
 Coeff-Com:  0.506D-02-0.577D-01 0.767D-01 0.288D+00 0.688D+00
 Coeff:      0.506D-02-0.577D-01 0.767D-01 0.288D+00 0.688D+00
 Gap=     0.308 Goal=   None    Shift=    0.000
 Gap=     0.336 Goal=   None    Shift=    0.000
 RMSDP=8.39D-08 MaxDP=6.65D-07 DE=-5.04D-11 OVMax= 1.25D-06

 Cycle   6  Pass 1  IDiag  1:
 E= -41.0049526902847     Delta-E=       -0.000000000004 Rises=F Damp=F
 DIIS: error= 2.27D-07 at cycle   6 NSaved=   6.
 NSaved= 6 IEnMin= 6 EnMin= -41.0049526902847     IErMin= 6 ErrMin= 2.27D-07
 ErrMax= 2.27D-07  0.00D+00 EMaxC= 1.00D-01 BMatC= 7.57D-13 BMatP= 1.15D-11
 IDIUse=1 WtCom= 1.00D+00 WtEn= 0.00D+00
 Coeff-Com: -0.209D-02 0.305D-01-0.623D-01-0.146D+00-0.116D+00 0.130D+01
 Coeff:     -0.209D-02 0.305D-01-0.623D-01-0.146D+00-0.116D+00 0.130D+01
 Gap=     0.308 Goal=   None    Shift=    0.000
 Gap=     0.336 Goal=   None    Shift=    0.000
 RMSDP=4.78D-08 MaxDP=5.99D-07 DE=-4.24D-12 OVMax= 1.08D-06

 Cycle   7  Pass 1  IDiag  1:
 E= -41.0049526902855     Delta-E=       -0.000000000001 Rises=F Damp=F
 DIIS: error= 8.15D-08 at cycle   7 NSaved=   7.
 NSaved= 7 IEnMin= 7 EnMin= -41.0049526902855     IErMin= 7 ErrMin= 8.15D-08
 ErrMax= 8.15D-08  0.00D+00 EMaxC= 1.00D-01 BMatC= 7.43D-14 BMatP= 7.57D-13
 IDIUse=1 WtCom= 1.00D+00 WtEn= 0.00D+00
 Coeff-Com: -0.624D-03 0.720D-02-0.103D-01-0.347D-01-0.781D-01 0.178D-01
 Coeff-Com:  0.110D+01
 Coeff:     -0.624D-03 0.720D-02-0.103D-01-0.347D-01-0.781D-01 0.178D-01
 Coeff:      0.110D+01
 Gap=     0.308 Goal=   None    Shift=    0.000
 Gap=     0.336 Goal=   None    Shift=    0.000
 RMSDP=1.63D-08 MaxDP=2.11D-07 DE=-8.81D-13 OVMax= 4.10D-07

 Cycle   8  Pass 1  IDiag  1:
 E= -41.0049526902856     Delta-E=       -0.000000000000 Rises=F Damp=F
 DIIS: error= 2.19D-08 at cycle   8 NSaved=   8.
 NSaved= 8 IEnMin= 8 EnMin= -41.0049526902856     IErMin= 8 ErrMin= 2.19D-08
 ErrMax= 2.19D-08  0.00D+00 EMaxC= 1.00D-01 BMatC= 5.34D-15 BMatP= 7.43D-14
 IDIUse=1 WtCom= 1.00D+00 WtEn= 0.00D+00
 Coeff-Com:  0.150D-03-0.232D-02 0.495D-02 0.117D-01 0.431D-02-0.149D+00
 Coeff-Com:  0.148D+00 0.983D+00
 Coeff:      0.150D-03-0.232D-02 0.495D-02 0.117D-01 0.431D-02-0.149D+00
 Coeff:      0.148D+00 0.983D+00
 Gap=     0.308 Goal=   None    Shift=    0.000
 Gap=     0.336 Goal=   None    Shift=    0.000
 RMSDP=4.27D-09 MaxDP=5.98D-08 DE=-6.39D-14 OVMax= 9.94D-08

 SCF Done:  E(UB3LYP) =  -41.0049526903     A.U. after    8 cycles
            NFock=  8  Conv=0.43D-08     -V/T= 2.0131
[...]
  Cent   Atom   N1       Length/X         N2         Alpha/Y        N3         Beta/Z          J
 -----------------------------------------------------------------------------------------------
      1  C 
      2  H        1   0.010122(     1)
      3  H        1  -0.001309(     2)      2   0.002051(     7)
      4  H        1  -0.001398(     3)      2   0.002045(     8)      3  -0.000099(    12)     0
      5  H        1  -0.000210(     4)      2   0.000050(     9)      3  -0.000039(    13)     0
         X        5   0.000000(     5)      1   0.000006(    10)      2  -0.000000(    14)     0
      6  H        5  -0.063208(     6)      6   0.000006(    11)      1   0.000003(    15)     0
 -----------------------------------------------------------------------------------------------
 Internal  Forces:  Max     0.063207919 RMS     0.016552582
 Leave Link  716 at Fri Aug 23 16:07:38 2019, MaxMem=  2684354560 cpu:         0.2
 (Enter /soft/gaussian/09-e.01/g09/l103.exe)

 GradGradGradGradGradGradGradGradGradGradGradGradGradGradGradGradGradGrad
 Berny optimization.
 Search for a local minimum.
 Step number  25 out of a maximum of   25
 All quantities printed in internal units (Hartrees-Bohrs-Radians)
 Update second derivatives using D2CorN and points   11   12   13   24   25
                                                          5
 The second derivative matrix:
                          R1        R2        A2        R3        A3
           R1           0.37707
           R2          -0.00082   0.35604
           A2          -0.01687   0.00116   0.29808
           R3          -0.00188   0.00035  -0.00465   0.35644
           A3          -0.01171  -0.00759   0.16842   0.00198   0.27050
           D3          -0.00145  -0.00081  -0.00972  -0.00079  -0.00762
           R4          -0.00206   0.00026   0.00054   0.00041   0.00002
           A4          -0.00426  -0.00141  -0.00070  -0.00114  -0.00098
           D4           0.00029   0.00031   0.00018   0.00013  -0.00093
           D6           0.00019   0.00005   0.00011   0.00004   0.00011
           A6          -0.00045  -0.00019  -0.00044  -0.00014  -0.00059
           R5           0.00000   0.00000  -0.00000   0.00000   0.00000
           A5          -0.00108  -0.00043  -0.00034  -0.00042  -0.00026
           D5           0.00000   0.00000   0.00000   0.00000   0.00000
           R6           0.00007   0.00001   0.00002   0.00001   0.00003
                          D3        R4        A4        D4        D6
           D3           0.17085
           R4          -0.01314   0.00270
           A4           0.04666  -0.01001   0.09201
           D4          -0.11083  -0.00282   0.04545   0.22591
           D6           0.00166   0.00094   0.00617  -0.00160   0.15972
           A6          -0.00833  -0.00112  -0.03251   0.00917   0.00133
           R5          -0.00000   0.00000   0.00000  -0.00000  -0.00000
           A5           0.00413  -0.00287  -0.01800   0.00651   0.00098
           D5          -0.00001   0.00001   0.00004  -0.00002   0.00016
           R6           0.00054   0.00326  -0.00067   0.00052   0.00000
                          A6        R5        A5        D5        R6
           A6           0.15321
           R5           0.00000   0.00000
           A5           0.15484  -0.00000   0.16000
           D5          -0.00033   0.00000  -0.00034   0.00000
           R6          -0.00012  -0.00000  -0.00000   0.00000   0.24791
 ITU=  0  0  0  0  0  0  0  0  0  0  0  0  0  0  0  0
 Skip linear search -- no minimum in search direction.
 Steepest descent instead of Quadratic search.
 Steepest descent step scaled to max of 0.05000.
 Variable       Old X    -DE/DX   Delta X   Delta X   Delta X     New X
                                 (Linear)    (Quad)   (Total)
    R1        2.02070   0.01012   0.00000   0.05000   0.05000   2.07070
    R2        2.04950  -0.00131   0.00000  -0.00646  -0.00646   2.04303
    A2        2.08816   0.00205   0.00000   0.01013   0.01013   2.09829
    R3        2.04974  -0.00140   0.00000  -0.00691  -0.00691   2.04283
    A3        2.08823   0.00205   0.00000   0.01010   0.01010   2.09834
    D3        3.06866  -0.00010   0.00000  -0.00049  -0.00049   3.06817
    R4        5.07464  -0.00021   0.00000  -0.00104  -0.00104   5.07361
    A4        1.57628   0.00005   0.00000   0.00025   0.00025   1.57653
    D4        4.68779  -0.00004   0.00000  -0.00019  -0.00019   4.68759
    D6        3.13780   0.00000   0.00000   0.00001   0.00001   3.13781
    A6        1.57498   0.00001   0.00000   0.00003   0.00003   1.57501
    R5        1.88973   0.00000   0.00000   0.00000   0.00000   1.88973
    A5        1.57080   0.00001   0.00000   0.00000   0.00000   1.57080
    D5        3.14159  -0.00000   0.00000   0.00000   0.00000   3.14159
    R6        1.66844  -0.06321   0.00000   0.00000   0.00000   1.66844
         Item               Value     Threshold  Converged?
 Maximum Force            0.010122     0.000450     NO 
 RMS     Force            0.003227     0.000300     NO 
 Maximum Displacement     0.050000     0.001800     NO 
 RMS     Displacement     0.013652     0.001200     NO 
 Predicted change in Energy=-1.214978D-04
 Optimization stopped.
    -- Number of steps exceeded,  NStep=  25
    -- Flag reset to prevent archiving.
                       ----------------------------
                       ! Non-Optimized Parameters !
                       ! (Angstroms and Degrees)  !
 ----------------------                            ----------------------
 !      Name          Value   Derivative information (Atomic Units)     !
 ------------------------------------------------------------------------
 !       R1          1.0958   -DE/DX =    0.0101                        !
 !       R2          1.0811   -DE/DX =   -0.0013                        !
 !       A2        120.2234   -DE/DX =    0.0021                        !
 !       R3          1.081    -DE/DX =   -0.0014                        !
 !       A3        120.2258   -DE/DX =    0.002                         !
 !       D3        175.793    -DE/DX =   -0.0001                        !
 !       R4          2.6848   -DE/DX =   -0.0002                        !
 !       A4         90.3283   -DE/DX =    0.0001                        !
 !       D4        268.5793   -DE/DX =    0.0                           !
 !       D6        179.7834   -DE/DX =    0.0                           !
 !       A6         90.2415   -DE/DX =    0.0                           !
 !       R5          1.0      -DE/DX =    0.0                           !
 !       A5         90.0      -DE/DX =    0.0                           !
 !       D5        180.0      -DE/DX =    0.0                           !
 !       R6          0.8829   -DE/DX =   -0.0632                        !
 ------------------------------------------------------------------------
 GradGradGradGradGradGradGradGradGradGradGradGradGradGradGradGradGradGrad

 Largest change from initial coordinates is atom    4       0.066 Angstoms.
 Leave Link  103 at Fri Aug 23 16:07:38 2019, MaxMem=  2684354560 cpu:         0.1
 (Enter /soft/gaussian/09-e.01/g09/l202.exe)
 ---------------------------------------------------------------------------------------------------
                            Z-MATRIX (ANGSTROMS AND DEGREES)
   CD    Cent   Atom    N1       Length/X        N2       Alpha/Y        N3        Beta/Z          J
 ---------------------------------------------------------------------------------------------------
      1      1  C 
      2      2  H        1   1.069310(     1)
      3      3  H        1   1.084548(     2)      2  119.643(     7)
      4      4  H        1   1.084676(     3)      2  119.647(     8)      3  175.821(    12)      0
      5      5  H        1   2.685385(     4)      2   90.314(     9)      3  268.590(    13)      0
      6         X        5   1.000000(     5)      1   90.000(    10)      2  180.000(    14)      0
      7      6  H        5   0.882900(     6)      6   90.240(    11)      1  179.783(    15)      0
 ---------------------------------------------------------------------------------------------------
                         Z-Matrix orientation:                         
 ---------------------------------------------------------------------
 Center     Atomic      Atomic             Coordinates (Angstroms)
 Number     Number       Type             X           Y           Z
 ---------------------------------------------------------------------
      1          6           0        0.000000    0.000000    0.000000
      2          1           0        0.000000    0.000000    1.069310
      3          1           0        0.942608    0.000000   -0.536408
      4          1           0       -0.940175   -0.068695   -0.536540
      5          1           0       -0.066054    2.684532   -0.014722
      6         -1           0       -0.065919    2.679052   -1.014707
      7          1           0       -0.084422    3.567241   -0.015866
 ---------------------------------------------------------------------
                    Distance matrix (angstroms):
                    1          2          3          4          5
     1  C    0.000000
     2  H    1.069310   0.000000
     3  H    1.084548   1.861946   0.000000
     4  H    1.084676   1.862096   1.884036   0.000000
     5  H    2.685385   2.895894   2.914836   2.935412   0.000000
     6  X    2.865536   3.394818   2.902278   2.922854   1.000000
     7  H    3.568275   3.729603   3.748461   3.771398   0.882900
                    6          7
     6  X    0.000000
     7  H    1.336751   0.000000
 Stoichiometry    CH5(2)
 Framework group  C1[X(CH5)]
 Deg. of freedom    12
 Full point group                 C1      NOp   1
 RotChk:  IX=0 Diff= 1.17D-16
 Largest Abelian subgroup         C1      NOp   1
 Largest concise Abelian subgroup C1      NOp   1
                         Standard orientation:                         
 ---------------------------------------------------------------------
 Center     Atomic      Atomic             Coordinates (Angstroms)
 Number     Number       Type             X           Y           Z
 ---------------------------------------------------------------------
      1          6           0        0.562265    0.000796    0.001589
      2          1           0        0.565167   -0.003685    1.070886
      3          1           0        0.582027    0.945404   -0.530922
      4          1           0        0.608323   -0.938430   -0.539018
      5          1           0       -2.123104   -0.004782   -0.005868
      6          1           0       -3.006002   -0.003281   -0.004610
 ---------------------------------------------------------------------
 Rotational constants (GHZ):    143.5275890     25.8442495     25.7709339
 Leave Link  202 at Fri Aug 23 16:07:38 2019, MaxMem=  2684354560 cpu:         0.1
 (Enter /soft/gaussian/09-e.01/g09/l601.exe)
 Copying SCF densities to generalized density rwf, IOpCl= 1 IROHF=0.

 **********************************************************************

            Population analysis using the SCF density.

 **********************************************************************

 Orbital symmetries:
 Alpha Orbitals:
       Occupied  (A) (A) (A) (A) (A) (A)
       Virtual   (A) (A) (A) (A) (A) (A) (A) (A) (A) (A) (A) (A)
                 (A) (A) (A) (A) (A) (A) (A)
 Beta  Orbitals:
       Occupied  (A) (A) (A) (A) (A)
       Virtual   (A) (A) (A) (A) (A) (A) (A) (A) (A) (A) (A) (A)
                 (A) (A) (A) (A) (A) (A) (A) (A)
 The electronic state is 2-A.
 Alpha  occ. eigenvalues --  -10.19632  -0.68716  -0.42205  -0.42130  -0.40127
 Alpha  occ. eigenvalues --   -0.22859
 Alpha virt. eigenvalues --    0.07632   0.11450   0.17861   0.18091   0.53634
 Alpha virt. eigenvalues --    0.54258   0.54543   0.62483   0.77046   0.90964
 Alpha virt. eigenvalues --    0.91539   0.95909   1.11021   1.64423   1.64496
 Alpha virt. eigenvalues --    2.00935   2.17502   2.19707   4.08873
  Beta  occ. eigenvalues --  -10.18244  -0.64719  -0.41246  -0.41187  -0.39876
  Beta virt. eigenvalues --   -0.06044   0.08708   0.13053   0.18407   0.18631
  Beta virt. eigenvalues --    0.54443   0.55078   0.59815   0.65323   0.78818
  Beta virt. eigenvalues --    0.91442   0.92067   0.98387   1.11697   1.71425
  Beta virt. eigenvalues --    1.71510   2.09399   2.18614   2.20835   4.12567
          Condensed to atoms (all electrons):
               1          2          3          4          5          6
     1  C    5.336621   0.381566   0.380389   0.380384   0.013055  -0.004323
     2  H    0.381566   0.508969  -0.030019  -0.030004   0.000079   0.000030
     3  H    0.380389  -0.030019   0.510978  -0.028591   0.000079   0.000026
     4  H    0.380384  -0.030004  -0.028591   0.511061   0.000066   0.000029
     5  H    0.013055   0.000079   0.000079   0.000066   0.612671   0.368734
     6  H   -0.004323   0.000030   0.000026   0.000029   0.368734   0.656700
          Atomic-Atomic Spin Densities.
               1          2          3          4          5          6
     1  C    1.150134  -0.009185  -0.008856  -0.008845   0.011162  -0.004722
     2  H   -0.009185  -0.042803   0.000954   0.000953  -0.000047   0.000009
     3  H   -0.008856   0.000954  -0.043586   0.000886  -0.000044   0.000010
     4  H   -0.008845   0.000953   0.000886  -0.043607  -0.000043   0.000009
     5  H    0.011162  -0.000047  -0.000044  -0.000043  -0.011473  -0.008644
     6  H   -0.004722   0.000009   0.000010   0.000009  -0.008644   0.044141
 Mulliken charges and spin densities:
               1          2
     1  C   -0.487692   1.129688
     2  H    0.169379  -0.050119
     3  H    0.167139  -0.050637
     4  H    0.167055  -0.050648
     5  H    0.005315  -0.009087
     6  H   -0.021196   0.030803
 Sum of Mulliken charges =  -0.00000   1.00000
 Mulliken charges and spin densities with hydrogens summed into heavy atoms:
               1          2
     1  C   -0.000000   1.000000
 Electronic spatial extent (au):  <R**2>=             92.9548
 Charge=             -0.0000 electrons
 Dipole moment (field-independent basis, Debye):
    X=              0.3277    Y=              0.0012    Z=              0.0084  Tot=              0.3278
 Quadrupole moment (field-independent basis, Debye-Ang):
   XX=            -10.8026   YY=             -9.1436   ZZ=             -9.1973
   XY=             -0.0241   XZ=             -0.0271   YZ=             -0.0001
 Traceless Quadrupole moment (field-independent basis, Debye-Ang):
   XX=             -1.0881   YY=              0.5709   ZZ=              0.5172
   XY=             -0.0241   XZ=             -0.0271   YZ=             -0.0001
 Octapole moment (field-independent basis, Debye-Ang**2):
  XXX=              0.5731  YYY=              0.0215  ZZZ=              0.8411  XYY=              1.8205
  XXY=             -0.0206  XXZ=             -0.0086  XZZ=              1.7592  YZZ=             -0.0071
  YYZ=             -0.7988  XYZ=              0.0115
 Hexadecapole moment (field-independent basis, Debye-Ang**3):
 XXXX=           -102.1510 YYYY=            -15.9838 ZZZZ=            -15.8253 XXXY=             -0.0629
 XXXZ=             -0.0428 YYYX=             -0.0502 YYYZ=             -0.0036 ZZZX=              0.4185
 ZZZY=              0.0005 XXYY=            -21.9395 XXZZ=            -21.9435 YYZZ=             -5.3009
 XXYZ=              0.0139 YYXZ=             -0.5029 ZZXY=             -0.0249
 N-N= 1.331271145224D+01 E-N=-1.205354236550D+02  KE= 4.048533685976D+01
                          Isotropic Fermi Contact Couplings
        Atom                 a.u.       MegaHertz       Gauss      10(-4) cm-1
     1  C(13)              0.10729     120.61398      43.03807      40.23249
     2  H(1)              -0.01540     -68.84061     -24.56404     -22.96275
     3  H(1)              -0.01559     -69.70229     -24.87151     -23.25018
     4  H(1)              -0.01559     -69.70774     -24.87345     -23.25200
     5  H(1)              -0.00324     -14.48945      -5.17019      -4.83316
     6  H(1)               0.00961      42.95747      15.32829      14.32907
 --------------------------------------------------------
       Center         ----  Spin Dipole Couplings  ----
                      3XX-RR        3YY-RR        3ZZ-RR
 --------------------------------------------------------
     1   Atom        1.076909     -0.538356     -0.538553
     2   Atom       -0.004495     -0.073627      0.078121
     3   Atom       -0.005621      0.041262     -0.035640
     4   Atom       -0.005480      0.040016     -0.034536
     5   Atom        0.027764     -0.013882     -0.013882
     6   Atom        0.006057     -0.003029     -0.003028
 --------------------------------------------------------
                        XY            XZ            YZ
 --------------------------------------------------------
     1   Atom        0.022467      0.030218      0.000426
     2   Atom        0.000963      0.000475     -0.000639
     3   Atom        0.002267      0.000466     -0.063595
     4   Atom       -0.003567     -0.001351      0.064215
     5   Atom       -0.000021     -0.000016      0.000002
     6   Atom       -0.000001      0.000001      0.000000
 --------------------------------------------------------


 ---------------------------------------------------------------------------------
              Anisotropic Spin Dipole Couplings in Principal Axis System
 ---------------------------------------------------------------------------------

       Atom             a.u.   MegaHertz   Gauss  10(-4) cm-1        Axes

              Baa    -0.5391   -72.344   -25.814   -24.132 -0.0185 -0.0122  0.9998
     1 C(13)  Bbb    -0.5387   -72.284   -25.793   -24.111 -0.0141  0.9998  0.0119
              Bcc     1.0778   144.629    51.607    48.243  0.9997  0.0139  0.0187
 
              Baa    -0.0736   -39.292   -14.021   -13.107 -0.0140  0.9999  0.0043
     2 H(1)   Bbb    -0.0045    -2.392    -0.854    -0.798  0.9999  0.0140 -0.0056
              Bcc     0.0781    41.685    14.874    13.905  0.0057 -0.0042  1.0000
 
              Baa    -0.0715   -38.170   -13.620   -12.732 -0.0231  0.4913  0.8707
     3 H(1)   Bbb    -0.0056    -3.000    -1.071    -1.001  0.9995 -0.0070  0.0304
              Bcc     0.0772    41.171    14.691    13.733  0.0211  0.8709 -0.4909
 
              Baa    -0.0715   -38.157   -13.615   -12.728 -0.0092 -0.4992  0.8665
     4 H(1)   Bbb    -0.0056    -3.013    -1.075    -1.005  0.9989  0.0348  0.0307
              Bcc     0.0772    41.170    14.690    13.733 -0.0455  0.8658  0.4983
 
              Baa    -0.0139    -7.408    -2.643    -2.471  0.0002  0.7700 -0.6380
     5 H(1)   Bbb    -0.0139    -7.406    -2.643    -2.470  0.0006  0.6380  0.7700
              Bcc     0.0278    14.814     5.286     4.941  1.0000 -0.0005 -0.0004
 
              Baa    -0.0030    -1.616    -0.577    -0.539  0.0002  0.8759 -0.4825
     6 H(1)   Bbb    -0.0030    -1.616    -0.576    -0.539 -0.0001  0.4825  0.8759
              Bcc     0.0061     3.232     1.153     1.078  1.0000 -0.0001  0.0001
 

 ---------------------------------------------------------------------------------

 No NMR shielding tensors so no spin-rotation constants.
 Leave Link  601 at Fri Aug 23 16:07:39 2019, MaxMem=  2684354560 cpu:         2.9
 (Enter /soft/gaussian/09-e.01/g09/l9999.exe)


 EVANS BOLDLY PUT 50 ATM. OF ETHYLENE IN A CELL WITH 25 ATM. OF OXYGEN.
 THE APPARATUS SUBSEQUENTLY BLEW UP, BUT LUCKILY NOT BEFORE HE
 OBTAINED THE SPECTRA SHOWN IN FIGURE 8.
 A.J.MERER AND R.S.MULLIKEN, CHEM.REV. 69, 645 (1969)
 Error termination request processed by link 9999.
 Error termination via Lnk1e in /soft/gaussian/09-e.01/g09/l9999.exe at Fri Aug 23 16:07:39 2019.
 Job cpu time:       0 days  0 hours  6 minutes 19.9 seconds.
 File lengths (MBytes):  RWF=     72 Int=      0 D2E=      0 Chk=      2 Scr=      2
