[Molden Format]
[Molpro variables]
_NUMVAR=  700.0000000000000    
_EV2006= 0.3674930886769165E-01
_EV= 0.3674932534394180E-01
_KJOULE= 0.3808798324128737E-03
_KJOULE/MOL= 0.3808798324128737E-03
_CM= 0.4556335267302901E-05
_CM-1= 0.4556335267302901E-05
_KCAL= 0.1593601117815568E-02
_KCAL/MOL= 0.1593601117815568E-02
_KELVIN2006= 0.3166828861084835E-05
_KELVIN= 0.3166814820820034E-05
_HERTZ2006= 0.1519829850815779E-15
_HERTZ= 0.1519829846011223E-15
_HZ2006= 0.1519829850815779E-15
_HZ= 0.1519829846011223E-15
_TOA2006= 0.5291772490000000    
_TOA= 0.5291772090000000    
_TOANG2006= 0.5291772490000000    
_TOANG= 0.5291772090000000    
_TORAD= 0.1745329251994330E-01
_TOCM=  219474.6306700000    
_TODEBYE=  2.541580000000000    
_TOEV2006=  27.21139610000000    
_TOEV=  27.21138390000000    
_TOHERTZ2006=  6579683899900000.    
_TOHERTZ=  6579683920700000.    
_TOHZ2006=  6579683899900000.    
_TOHZ=  6579683920700000.    
_TOK2006=  315773.3000000000    
_TOK=  315774.7000000000    
_TOKCAL=  627.5096000000000    
_TOKELVIN2006=  315773.3000000000    
_TOKELVIN=  315774.7000000000    
_TOKJ=  2625.500000000000    
_TOKJOULE=  2625.500000000000    
_ANG2006=  1.889725988578923    
_ANG=  1.889726131421507    
_ANGSTROM2006=  1.889725988578923    
_ANGSTROM=  1.889726131421507    
_IGNORE_UNDEF=  2.000000000000000    
_STRICTCHECK=  0.000000000000000    
_SEW_ONEEL=  0.000000000000000    
_CPPDONE=FALSE
_DKROLL_DONE=  0.000000000000000    
_FOCKDONE=  0.000000000000000    
_GRADONE=FALSE
_HESSDONE=TRUE
_INTDONE=TRUE
_SCFDONE=FALSE
_MODUL_CUDA=FALSE
_MODUL_SLATER=FALSE
_MODUL_MRCC=FALSE
_MRCC_EXEC=
_FITC_AO_SAVED=FALSE
_FITC_MO_SAVED=FALSE
_SHARED_FS=TRUE
_LSTYP=SEWARD
_INTYP=INTS
_GEOMTYP=ZMAT
_GRADTYP=ALASKA
_DIRECT=FALSE
_SYNCM=  0.000000000000000    
_BASIS=CC-PVDZ
_ZORIENT=  1.000000000000000    
_NELEC=  10.00000000000000    
_SPIN=  0.000000000000000    
!SPIN=  0.000000000000000    
_OPTCONV= 0.1117873622614942E-03
_QSDSTEP=  0.000000000000000    
_QSDIRC=  0.000000000000000    
_PROGRAM=FREQ
_CPUSTEP=  0.000000000000000    
_SYSSTEP= 0.1000000000000023E-01
_WALLSTEP= 0.1100000000000000    
!DFMP2=  0.000000000000000    
!DFSCF=  0.000000000000000    
!SCSGRD=  0.000000000000000    
_BASINP=  610.0000000000000    
_CPUTOT=  66.95999999999999    
_DFTEXFAC=  1.000000000000000    
_DMX= 0.1169148348910272E-05
_DMY= 0.1326349944916991E-07
_DMZ= 0.9320671671437442E-01
_FREQUENCIES= -393.7623606777785    
_EMP2= -40.19611854653735    
_ENERGR= -40.06111935757269    
_ENERGU= -40.22392992613941    
_ENERGY= -40.19611854653735    
_ENUC=  11.03920047493526    
_FREQSTEP=  31.00000000000000    
!RS2GRSTATE=  1.000000000000000    
!RS2GRSYM=  1.000000000000000    
_GRADENERG= -40.19607846322877    
_GRADEXFAC=  9999.000000000000    
_GRADMETHOD=TRUE
_GRADRECORD=  5200.100000000000    
_VIRIAL= 0.2362059628610485E-01
!GRID_FREEZE= -1.000000000000000    
_ITERATIONS=  0.000000000000000    
_LASTNELEC=  2.000000000000000    
_LASTSPIN=  0.000000000000000    
_LASTSYM=  1.000000000000000    
_MPP_PROG=  1.000000000000000    
_MSENERGY= -40.19611854653735    
_NPROC_MPP=  4.000000000000000    
_NPROC_SMP=  1.000000000000000    
_NUMSTEP=  0.000000000000000    
_OPTCONVMX= 0.9137556684688010E-04
_OPTCONVRMS= 0.1397342028268678E-04
_OPTGRAD= 0.1662386615933060E-03
_OPTGRADMX= 0.1127319676418545E-03
_OPTGRADRMS= 0.2077983269916325E-04
_OPTSTEP=  4.000000000000000    
_ORBITAL=  2142.200000000000    
_PI=  3.141592653589793    
!MCACT=  2.000000000000000    
!MCCLOSED=  4.000000000000000    
!MCFREEZE=  0.000000000000000    
!MCMS2=  0.000000000000000    
!MCNEL=  2.000000000000000    
!MCNSTSYM=  1.000000000000000    
!MCSTATE=  1.000000000000000    
!MCSYM=  1.000000000000000    
!MCWEIGHT=  1.000000000000000    
_SEIG_MIN= 0.1527851318778362E-01
_SEWPROP=TRUE
_STATUS=  1.000000000000000    
_SYSTOT=  3.510000000000000    
_VERSION=  2010001.000000000    
_WALLTOT=  375.1200000000000    
_ZPE= 0.3099063281749136E-01
_DATE=30-Aug-19
_LASTORB=MCSCF
_MACHINE=Linux-2.6.34-12-desktop/tt105(x86_64) 64 bit mpp version
_OUTPUT=/home/carlo/qm/combustion/test_diss/newalg/ch4_ch3_h_vrc_test1/dist_3.2/molpro.xml
_PGROUP=C1
_TIME=02:30:09
_LIBMOL=/programs/molpro2010p/bin/../lib/
!SURFREC=  0.000000000000000    
!POLYREC=  0.000000000000000    
!DIPREC=  0.000000000000000    
!VSCFREC=  0.000000000000000    
!VCIREC=  0.000000000000000    
!PVCIREC=  0.000000000000000    
!VMP2REC=  0.000000000000000    
!VMCSCFREC=  0.000000000000000    
!GAREC=  0.000000000000000    
!SCFORB=  21002.00000000000    
!MCORB=  21422.00000000000    
!CIOCC=  6.000000000000000    
!CICORE=  1.000000000000000    
!CICLOS=  4.000000000000000    
!CIISTSYM=  1.000000000000000    
!CIISTMS2=  0.000000000000000    
!CIISTNEL=  8.000000000000000    
!NEWMOL=  0.000000000000000    
!NEWSYM=  0.000000000000000    
_SLFILES=slscratch
_NGSSTO=  9.000000000000000    
_SIN=SIN
_COS=COS
_TAN=TAN
_ACOS=ACOS
_ASIN=ASIN
_ATAN=ATAN
_COSH=COSH
_SINH=SINH
_TANH=TANH
_ABS=ABS
_MOD=MOD
_ERF=ERF
_REFC=REFC
_ERFC=ERFC
_HYPOT=HYPOT
_J0=J0
_J1=J1
_JN=JN
_GAMMA=GAMMA
_LGAMMA=LGAMMA
_Y0=Y0
_Y1=Y1
_YN=YN
_EXP=EXP
_LOG=LOG
_LOG10=LOG10
_SQRT=SQRT
_INT=INT
_NINT=NINT
_MAX=MAX
_MIN=MIN
_COSMO=  0.000000000000000    
_COSMOIT=  0.000000000000000    
_COSMOES=  0.000000000000000    
_COSMOEDS=  0.000000000000000    
_COSMOEC=  0.000000000000000    
_COSMOEDCORR=  0.000000000000000    
_FEPSI=  1.000000000000000    
_SL_IsMM=  0.000000000000000    
_SL_NSYM=  0.000000000000000    
_SL_System_BitSw=  0.000000000000000    
_SL_Unique_atoms=  0.000000000000000    
_SL_GRAD=  0.000000000000000    
_SL_MAXUPD_Hess=  5.000000000000000    
_SL_N_PRINT_COD=  5.000000000000000    
_SL_PRINT_CODES=  0.000000000000000    
_SL_BasType=  0.000000000000000    
_SL_Energy_Pred=  0.000000000000000    
_SL_New_Coords=  0.000000000000000    
_SL_Total_Nuclea=  0.000000000000000    
_SL_Highest_Mltp=  0.000000000000000    
_SL_Ref_Geom=  0.000000000000000    
!LATTICE= -1.000000000000000    
!NEWLATTICE=  0.000000000000000    
!LATGRAD_VAR=FALSE
!SEW_LATTICE=  1.000000000000000    
!LOCAL=  0.000000000000000    
!SAVEDOM= -1.000000000000000    
!RESTDOM= -1.000000000000000    
!SAVEDOM_HF= -1.000000000000000    
!RESTDOM_HF= -1.000000000000000    
!HESSREC=  5300.200000000000    
!FREQREC=  5400.200000000000    
!NMODREC=  5450.200000000000    
!GTASKS=  0.000000000000000    
!HTASKS=  5500.200000000000    
!THRCHG= 0.1000000000000000    
!DEBUG= -1.000000000000000    
!CFIT_CPHF=  0.000000000000000    
!RDOMAUX_CPHF=  3.000000000000000    
!THRAO_CPHF= 0.1000000000000000E-09
!THRMO_CPHF= 0.1000000000000000E-09
!THROV_CPHF= 0.1000000000000000E-11
!THRSW_CPHF= 0.1000000000000000E-09
!THRPROD_CPHF= 0.1000000000000000E-09
!THRAOPR_CPHF= 0.1000000000000000E-11
!CFIT_SCFGRD=  0.000000000000000    
!RDOMAUX_SCFGRD=  5.000000000000000    
!THRAO_SCFGRD= 0.1000000000000000E-09
!THRMO_SCFGRD= 0.1000000000000000E-09
!THROV_SCFGRD= 0.1000000000000000E-11
!THRSW_SCFGRD= 0.1000000000000000E-09
!THRPROD_SCFGRD= 0.1000000000000000E-09
!THRAOPR_SCFGRD= 0.1000000000000000E-11
!LOCFIT_SCF=  0.000000000000000    
!LOCFIT_MP2= -1.000000000000000    
_RIDOM=  0.000000000000000    
!CC2_METHOD=  0.000000000000000    
_BASIS2006=FALSE
_SVDDEL= -1.000000000000000    
_SVDDELA= -1.000000000000000    
_SVDDELP= -1.000000000000000    
_SVDDELF= -1.000000000000000    
_SVDDELS= -1.000000000000000    
_SVDDEL_ABS= -1.000000000000000    
_SVDDELA_ABS= -1.000000000000000    
_SVDDELP_ABS= -1.000000000000000    
_SVDDELF_ABS= -1.000000000000000    
_SVDDELS_ABS= -1.000000000000000    
_MAXBASIS=  0.000000000000000    
!OPT_CONICAL=  0.000000000000000    
!CLEARSP_JGRID=  0.000000000000000    
RCH1=  1.089987840209000    
RCH2=  1.089987112585718    
RCH3=  1.089987456689902    
AHCC1=  119.9715845881226    
AHCC2=  119.9704415427902    
AHCC3=  90.98035533306094    
B1=  176.5991508691534    
B2= -91.70020260769353    
RCH4=  3.200000000000000    
GX1= 0.1641203353836516E-05
GY1=-0.3017111672601411E-05
GZ1= 0.3732765219277564    
GX2=  1.775436119044429    
GY2= -1.043688270297043    
GZ2= 0.4085042820652718    
GX3= -1.791583100154430    
GY3= -1.015708482130196    
GZ3= 0.4086084670798452    
GX4= 0.1615789663946599E-01
GY4=  2.059408003073948    
GZ4= 0.4086280087966755    
GX5=-0.3047273870608602E-04
GY5= 0.2470241428721709E-04
GZ5= -5.673847098472261    
C1X1= 0.1641203353835649E-05
C1Y1=-0.3017111672600978E-05
C1Z1= 0.3732765219277564    
H2X2=  1.775436119044429    
H2Y2= -1.043688270297043    
H2Z2= 0.4085042820652718    
H3X3= -1.791583100154430    
H3Y3= -1.015708482130196    
H3Z3= 0.4086084670798452    
H4X4= 0.1615789663946599E-01
H4Y4=  2.059408003073948    
H4Z4= 0.4086280087966755    
H5X5=-0.3047273870608602E-04
H5Y5= 0.2470241428721709E-04
H5Z5= -5.673847098472261    
CBSEN= -40.19611854653735    
[Atoms] Angs
C     1    6         0.0000008685       -0.0000015966        0.1975294281
H     2    1         0.9395203302       -0.5522960459        0.2161711558
H     3    1        -0.9480649446       -0.5374897797        0.2162262882
H     4    1         0.0085503906        1.0897917793        0.2162366292
H     5    1        -0.0000161255        0.0000130720       -3.0024705719
[GTO]
  1 0
 s    9  1.00
  0.6665000000D+04  0.6920001793D-03
  0.1000000000D+04  0.5329001381D-02
  0.2280000000D+03  0.2707700701D-01
  0.6471000000D+02  0.1017180264D+00
  0.2106000000D+02  0.2747400712D+00
  0.7495000000D+01  0.4485641162D+00
  0.2797000000D+01  0.2850740738D+00
  0.5215000000D+00  0.1520400394D-01
  0.1596000000D+00 -0.3191000827D-02
 s    9  1.00
  0.6665000000D+04 -0.1460000642D-03
  0.1000000000D+04 -0.1154000508D-02
  0.2280000000D+03 -0.5725002519D-02
  0.6471000000D+02 -0.2331201026D-01
  0.2106000000D+02 -0.6395502813D-01
  0.7495000000D+01 -0.1499810660D+00
  0.2797000000D+01 -0.1272620560D+00
  0.5215000000D+00  0.5445292395D+00
  0.1596000000D+00  0.5804962554D+00
 s    9  1.00
  0.6665000000D+04  0.0000000000D+00
  0.1000000000D+04  0.0000000000D+00
  0.2280000000D+03  0.0000000000D+00
  0.6471000000D+02  0.0000000000D+00
  0.2106000000D+02  0.0000000000D+00
  0.7495000000D+01  0.0000000000D+00
  0.2797000000D+01  0.0000000000D+00
  0.5215000000D+00  0.0000000000D+00
  0.1596000000D+00  0.1000000000D+01
 p    4  1.00
  0.9439000000D+01  0.3810902127D-01
  0.2002000000D+01  0.2094801169D+00
  0.5456000000D+00  0.5085572839D+00
  0.1517000000D+00  0.4688422617D+00
 p    4  1.00
  0.9439000000D+01  0.0000000000D+00
  0.2002000000D+01  0.0000000000D+00
  0.5456000000D+00  0.0000000000D+00
  0.1517000000D+00  0.1000000000D+01
 d    1  1.00
  0.5500000000D+00  0.1000000000D+01
  
  2 0
 s    4  1.00
  0.1301000000D+02  0.1968498999D-01
  0.1962000000D+01  0.1379769298D+00
  0.4446000000D+00  0.4781477569D+00
  0.1220000000D+00  0.5012397451D+00
 s    4  1.00
  0.1301000000D+02  0.0000000000D+00
  0.1962000000D+01  0.0000000000D+00
  0.4446000000D+00  0.0000000000D+00
  0.1220000000D+00  0.1000000000D+01
 p    1  1.00
  0.7270000000D+00  0.1000000000D+01
  
  3 0
 s    4  1.00
  0.1301000000D+02  0.1968498999D-01
  0.1962000000D+01  0.1379769298D+00
  0.4446000000D+00  0.4781477569D+00
  0.1220000000D+00  0.5012397451D+00
 s    4  1.00
  0.1301000000D+02  0.0000000000D+00
  0.1962000000D+01  0.0000000000D+00
  0.4446000000D+00  0.0000000000D+00
  0.1220000000D+00  0.1000000000D+01
 p    1  1.00
  0.7270000000D+00  0.1000000000D+01
  
  4 0
 s    4  1.00
  0.1301000000D+02  0.1968498999D-01
  0.1962000000D+01  0.1379769298D+00
  0.4446000000D+00  0.4781477569D+00
  0.1220000000D+00  0.5012397451D+00
 s    4  1.00
  0.1301000000D+02  0.0000000000D+00
  0.1962000000D+01  0.0000000000D+00
  0.4446000000D+00  0.0000000000D+00
  0.1220000000D+00  0.1000000000D+01
 p    1  1.00
  0.7270000000D+00  0.1000000000D+01
  
  5 0
 s    4  1.00
  0.1301000000D+02  0.1968498999D-01
  0.1962000000D+01  0.1379769298D+00
  0.4446000000D+00  0.4781477569D+00
  0.1220000000D+00  0.5012397451D+00
 s    4  1.00
  0.1301000000D+02  0.0000000000D+00
  0.1962000000D+01  0.0000000000D+00
  0.4446000000D+00  0.0000000000D+00
  0.1220000000D+00  0.1000000000D+01
 p    1  1.00
  0.7270000000D+00  0.1000000000D+01
 
 
[MO]
 Sym=      1.1
 Ene=     -11.2374
 Spin= Alpha
 Occup=    2.000000
1 1.00131457835178
2 0.007643313042700
3 -0.007667349100313
4 -0.000000000217564
5 0.000000001461918
6 0.000055831449041
7 0.000000000327538
8 -0.000000014698183
9 -0.000005530346360
10 0.000355165620958
11 0.000355127482071
12 -0.000710293103030
13 0.000000002139051
14 -0.000000035391162
15 0.000000028621096
16 -0.000640628188552
17 0.001530847643506
18 0.000444455350151
19 -0.000261281303262
20 0.000014282819324
21 -0.000640635463527
22 0.001530855140790
23 -0.000448499225403
24 -0.000254276681119
25 0.000014308857515
26 -0.000640598042626
27 0.001530841549017
28 0.000004043856318
29 0.000515540724784
30 0.000014313202450
31 -0.000158351623298
32 0.000237573376802
33 -0.000000000292013
34 0.000000000215277
35 0.000024897640338
 Sym=      2.1
 Ene=      -0.8972
 Spin= Alpha
 Occup=    2.000000
1 -0.026351189751955
2 0.75990108971022
3 -0.14229468388879
4 0.000000079064787
5 0.000001106184191
6 0.009035971066514
7 0.000000023376609
8 -0.000000768121137
9 -0.001747195568799
10 0.001912099108639
11 0.001912115108547
12 -0.003824214217186
13 0.000000010893598
14 -0.000000189454652
15 0.000000153926119
16 0.34641455901991
17 -0.14339691876893
18 -0.024117012105983
19 0.014177208197664
20 -0.000213552078658
21 0.34641517506089
22 -0.14339720238540
23 0.024336448875190
24 0.013797166819965
25 -0.000214971572469
26 0.34641568914274
27 -0.14339704303793
28 -0.000219460253080
29 -0.027974535963747
30 -0.000215236726747
31 0.004130761349700
32 0.000993439727355
33 0.000000000401206
34 -0.000000000530101
35 0.000502433619039
 Sym=      3.1
 Ene=      -0.5691
 Spin= Alpha
 Occup=    2.000000
1 -0.000000007604769
2 0.000000027390352
3 -0.000000119896371
4 -0.63703990233871
5 -0.038601392566020
6 0.000017511382164
7 0.11687021646055
8 0.007081777953404
9 -0.000003226189593
10 0.001713674742039
11 -0.001713743523059
12 0.000000068781021
13 0.023487287879217
14 -0.001316048652845
15 -0.000080502306057
16 -0.52777220184893
17 0.14892512976207
18 0.012725197883340
19 -0.015452504678355
20 0.000368139245643
21 0.57121727533963
22 -0.16118434883690
23 0.015031061419030
24 0.014746532752156
25 -0.000399332291166
26 -0.043445428808800
27 0.012259277852542
28 -0.012275396927386
29 0.001644005220252
30 0.000030758303707
31 -0.000000191410957
32 0.000000001172897
33 -0.000313950553972
34 -0.000019022019451
35 -0.000000015474346
 Sym=      4.1
 Ene=      -0.5691
 Spin= Alpha
 Occup=    2.000000
1 -0.000000033507974
2 0.000002032826502
3 0.000000314162928
4 0.038601277458076
5 -0.63704013138277
6 -0.000015947961887
7 -0.007081599401989
8 0.11686880193153
9 0.000002949080531
10 0.020340972332269
11 -0.020340951592106
12 -0.000000020740162
13 -0.001978875409114
14 0.000079048698823
15 -0.001317031507586
16 0.35487511569293
17 -0.10013684683890
18 -0.016077955422145
19 -0.002404820697478
20 -0.000247617638600
21 0.27962581988175
22 -0.078903363740744
23 0.014121241779251
24 -0.004710708241156
25 -0.000195956302207
26 -0.63450161686701
27 0.17904057010762
28 0.001018672349370
29 0.022595631702992
30 0.000443969269640
31 0.000000185056518
32 0.000000022575387
33 0.000019025592074
34 -0.000313952139766
35 0.000000017985123
 Sym=      5.1
 Ene=      -0.1857
 Spin= Alpha
 Occup=    1.230225
1 -0.000662995992399
2 -0.000367776668163
3 -0.000158867766239
4 0.000017998419139
5 -0.000014520747445
6 0.60009587346699
7 0.000002056304615
8 -0.000001620504702
9 0.070846106499817
10 0.001246263094082
11 0.001246197961475
12 -0.002492461055557
13 -0.000000030476341
14 -0.000000103581585
15 0.000000151718376
16 0.012708102739002
17 -0.006020352457720
18 -0.000402543807732
19 0.000236549516031
20 0.013619008612633
21 0.012707200153313
22 -0.006020105396519
23 0.000406964174159
24 0.000230180508220
25 0.013618957921358
26 0.012706904368395
27 -0.006020074462063
28 -0.000003272101082
29 -0.000467657372228
30 0.013618878787571
31 -0.67080506966182
32 -0.028159204490154
33 -0.000000009102313
34 0.000000006692967
35 -0.000636339027740
 Sym=      6.1
 Ene=      -0.0979
 Spin= Alpha
 Occup=    0.769775
1 0.001848336437380
2 -0.021190467506210
3 -0.016808309892815
4 0.000018715326442
5 -0.000015080921875
6 0.66267332749649
7 0.000002169911695
8 -0.000001760433036
9 0.077569747335765
10 0.000472061095743
11 0.000472105053873
12 -0.000944166149617
13 0.000000027427635
14 -0.000000028626723
15 0.000000102337118
16 0.000855677426038
17 0.001773315864207
18 0.000130350769067
19 -0.000076708044126
20 0.013660723111205
21 0.000856656176234
22 0.001773127325129
23 -0.000130706754218
24 -0.000074642375944
25 0.013660754871147
26 0.000856816995884
27 0.001773087849177
28 0.000001579640227
29 0.000150376936268
30 0.013660682767873
31 0.75011835833707
32 -0.031784166519565
33 0.000000011180837
34 -0.000000007249799
35 -0.002094979664414
 Sym=      7.1
 Ene=       0.2004
 Spin= Alpha
 Occup=    0.000000
1 -0.080650453879735
2 0.22123175819383
3 2.05175989965733
4 0.000000333020862
5 -0.000000024490715
6 0.016776561160788
7 0.000000177454928
8 0.000003433412750
9 0.011486439184543
10 0.013301454000848
11 0.013300881436573
12 -0.026602335437420
13 0.000000051284455
14 -0.000001344751682
15 0.000001096461493
16 -0.058946546050607
17 -1.00599793209495
18 0.015161432852435
19 -0.008912924789621
20 0.001016152900565
21 -0.058946085922954
22 -1.00600086801047
23 -0.015299382324875
24 -0.008674018223376
25 0.001017050300085
26 -0.058944043818534
27 -1.00600074920779
28 0.000137978636480
29 0.017586535777788
30 0.001017209712609
31 0.088412053539997
32 -0.039766370650607
33 -0.000000183587652
34 0.000000135699591
35 -0.004703484554510
 Sym=      8.1
 Ene=       0.2692
 Spin= Alpha
 Occup=    0.000000
1 0.000000072060448
2 -0.000000015709206
3 -0.000000010100027
4 -0.44616363124962
5 0.017022911508818
6 0.000012998609184
7 -1.23746444310081
8 0.047212992816684
9 0.000037452329682
10 -0.000306954577844
11 0.000306896941052
12 0.000000057636791
13 0.024265742360404
14 -0.001832091447241
15 0.000069225837132
16 0.022264010958571
17 1.89843965524611
18 -0.021700499275381
19 0.010503339335074
20 -0.000148329895794
21 -0.021497502438113
22 -1.83316026156197
23 -0.021249938798876
24 -0.009566887188782
25 0.000144413482564
26 -0.000765726069659
27 -0.065279389979147
28 -0.004093057161046
29 0.000858460637327
30 0.000005241766786
31 -0.000002980311574
32 0.000000882416384
33 0.002913231219580
34 -0.000111336874935
35 0.000000158348582
 Sym=      9.1
 Ene=       0.2692
 Spin= Alpha
 Occup=    0.000000
1 0.000000157160471
2 0.000001578973273
3 -0.000003147653899
4 -0.017022720416275
5 -0.44616473930291
6 -0.000009674211715
7 -0.047214339964531
8 -1.23745486859977
9 -0.000027858621165
10 0.021014549934407
11 -0.021014912584707
12 0.000000362650300
13 0.000354369699721
14 -0.000070619029228
15 -0.001833216691052
16 -0.011974424392695
17 -1.02067687535738
18 0.009306783866429
19 -0.009662084256127
20 0.000079733233105
21 -0.013299963410226
22 -1.13374822321364
23 -0.010763521009944
24 -0.010112751315677
25 0.000089189935610
26 0.025269163584900
27 2.15443365470351
28 -0.000338137287599
29 -0.027269169561653
30 -0.000169912406767
31 0.000001606797457
32 -0.000000192130410
33 0.000110950109125
34 0.002912854594655
35 -0.000000089565873
 Sym=     10.1
 Ene=       0.6152
 Spin= Alpha
 Occup=    0.000000
1 0.000018806146484
2 0.000043666945766
3 -0.000134214514218
4 0.009020388031187
5 -0.44601187268153
6 -0.000119082863239
7 -0.033202986341610
8 1.64174382240437
9 0.000138076134543
10 0.10893995650085
11 -0.10891264098531
12 -0.000027315515542
13 -0.005506906534183
14 0.000059170600505
15 -0.003115157182336
16 0.69861918386090
17 -0.24777120483448
18 0.033007427527564
19 0.051782045080621
20 0.000617182140850
21 0.63384033240457
22 -0.22479712046368
23 -0.033010639444281
24 0.054153269490284
25 0.000561516785454
26 -1.33210243895895
27 0.47237326812615
28 -0.002054862814527
29 -0.004174099528524
30 -0.001189890870218
31 0.000419492772320
32 -0.000452012629960
33 -0.000184473780076
34 0.009123629433288
35 -0.000005515250851
 Sym=     11.1
 Ene=       0.6152
 Spin= Alpha
 Occup=    0.000000
1 0.000006635070746
2 0.000015215080113
3 -0.000051118152081
4 0.44601358426729
5 0.009020641022325
6 -0.000061448905601
7 -1.64177604446041
8 -0.033205532148846
9 0.000091424177784
10 -0.004763808766614
11 0.004773965194878
12 -0.000010156428265
13 -0.12577830282451
14 0.003109680273793
15 0.000066724537003
16 1.13508029153371
17 -0.40250292952488
18 -0.016051436298446
19 -0.034373722447483
20 0.001007565856253
21 -1.17239790816526
22 0.41572517172157
23 -0.013686773553297
24 0.031628868469489
25 -0.001044103914189
26 0.037440827628840
27 -0.013280057441828
28 -0.072027332569442
29 0.000686641723808
30 0.000033353412678
31 0.000190741024179
32 -0.000204534616351
33 -0.009123577021268
34 -0.000184572483717
35 -0.000003021047204
 Sym=     12.1
 Ene=       0.6217
 Spin= Alpha
 Occup=    0.000000
1 0.070455663060446
2 0.16060106845501
3 -0.53523254548479
4 -0.000065105728953
5 0.000120426836837
6 -0.50335240037466
7 0.000194592794632
8 -0.000411655477822
9 0.47282628665992
10 0.052621777331648
11 0.052672221261582
12 -0.10529399859323
13 0.000014572019138
14 -0.000004643523229
15 0.000004274344813
16 0.44054497867963
17 -0.21693610320706
18 0.034794550388506
19 -0.020466706800964
20 -0.021086354138957
21 0.44080293303937
22 -0.21703460479409
23 -0.035108946168430
24 -0.019925679035956
25 -0.021085442226572
26 0.44115121357593
27 -0.21715012889993
28 0.000324200359011
29 0.040368611236881
30 -0.021084969909703
31 1.76278081408281
32 -1.90977432083598
33 0.000001003775751
34 -0.000002196446333
35 -0.018926468771385
 Sym=     13.1
 Ene=       0.7189
 Spin= Alpha
 Occup=    0.000000
1 -0.074230797027774
2 -0.046518223050577
3 0.39421335034390
4 -0.000028999028585
5 0.000012897118504
6 -0.98813531694464
7 0.000036663630315
8 0.000011984973564
9 1.19363239138188
10 -0.098514109014185
11 -0.098513486593259
12 0.19702759560744
13 0.000000139796352
14 0.000009977487976
15 -0.000008103705893
16 -0.84799610531113
17 0.62724173984114
18 -0.072958580084953
19 0.042890653333790
20 -0.035795031122885
21 -0.84799199662009
22 0.62723871526128
23 0.073620447432306
24 0.041740787505833
25 -0.035799541276797
26 -0.84802333560225
27 0.62723018989894
28 -0.000664729495204
29 -0.084625686158540
30 -0.035800424937028
31 0.18513231179371
32 -0.16749424629361
33 0.000000145651466
34 0.000000083065405
35 -0.020823612126836
 Sym=     14.1
 Ene=       0.7937
 Spin= Alpha
 Occup=    0.000000
1 0.009962974414159
2 -0.15728158957651
3 0.16333678409492
4 -0.000023621118667
5 0.000027035560238
6 -0.99758699461716
7 0.000024668757499
8 -0.000045166674162
9 1.27597365891595
10 0.077171002964994
11 0.077166712345961
12 -0.15433771531096
13 -0.000000543092674
14 -0.000009185862114
15 0.000007489142337
16 0.62856669431645
17 -0.59719887263374
18 0.067155590661708
19 -0.039478009555069
20 -0.029218921693441
21 0.62855383195107
22 -0.59719050237217
23 -0.067769665665433
24 -0.038419689273361
25 -0.029213333967980
26 0.62856221944239
27 -0.59717360976342
28 0.000609560479231
29 0.077898412424284
30 -0.029212291862813
31 -1.17750082548111
32 1.43061413101385
33 -0.000000443622206
34 0.000000285238923
35 -0.071211372344255
 Sym=     15.1
 Ene=       0.8961
 Spin= Alpha
 Occup=    0.000000
1 0.000000977813960
2 0.000003245842142
3 -0.000003637052198
4 0.13786026914967
5 -1.24969658450497
6 -0.000033538607883
7 -0.25354251136979
8 2.29834781943657
9 0.000061510262109
10 -0.28790401863912
11 0.28790559404952
12 -0.000001575410404
13 0.044613653853381
14 -0.001116957218506
15 0.010228499307042
16 -0.35972799043386
17 1.19668647416701
18 -0.17540931358117
19 0.040313683857404
20 -0.003480892495789
21 -0.23741042933866
22 0.78978623568016
23 0.12916124567845
24 0.001870518702479
25 -0.002305019078475
26 0.59715529971614
27 -1.98648716457138
28 0.010169958033532
29 0.28486101405800
30 0.005794526584025
31 -0.000001372589693
32 0.000001553304248
33 0.000157078684862
34 -0.001417284386693
35 -0.000000625208379
 Sym=     16.1
 Ene=       0.8961
 Spin= Alpha
 Occup=    0.000000
1 0.000000628952621
2 0.000002977432166
3 -0.000004344046096
4 1.24969627222725
5 0.13785981687705
6 -0.000031320334460
7 -2.29835374345683
8 -0.25354181725888
9 0.000058390093842
10 0.038636018296834
11 -0.038636774767440
12 0.000000756470606
13 0.33244096772514
14 -0.010215638903877
15 -0.001138334595824
16 -0.48184228405988
17 1.60288789952397
18 -0.17771764509104
19 0.15135632295399
20 -0.004661700530480
21 0.55245930704406
22 -1.83780816541175
23 -0.21616076571055
24 -0.15321246276833
25 0.005357634123536
26 -0.070621183990239
27 0.23492632584869
28 0.066830449613978
29 -0.034221923954304
30 -0.000687241638033
31 0.000003620801564
32 -0.000004588564805
33 0.001418229014762
34 0.000155719739702
35 -0.000000227824351
 Sym=     17.1
 Ene=       1.0705
 Spin= Alpha
 Occup=    0.000000
1 0.80272920900097
2 3.64093799703131
3 -6.09683790169172
4 -0.000001172695842
5 0.000003399229897
6 -0.035778349537690
7 0.000001497283757
8 -0.000014138530353
9 0.029571569188623
10 -0.017294350099919
11 -0.017288704943939
12 0.034583055043857
13 -0.000000855205944
14 0.000000866725621
15 -0.000000536848614
16 0.17259616477141
17 0.84500313363986
18 -0.15761910454262
19 0.092656514641064
20 -0.005556980611141
21 0.17259456955367
22 0.84500844836215
23 0.15905320273928
24 0.090173002470392
25 -0.005565202211002
26 0.17259760390277
27 0.84501187230292
28 -0.001434571013717
29 -0.18282948801941
30 -0.005566519648105
31 -0.19166485703874
32 0.23782395167838
33 0.000000825584450
34 -0.000000652917165
35 -0.052771375329171
 Sym=     18.1
 Ene=       1.2143
 Spin= Alpha
 Occup=    0.000000
1 0.000001054234413
2 0.000004511758626
3 -0.000007309274899
4 -0.003595958642208
5 -0.000051855694966
6 -0.000001304690403
7 -0.011071060036075
8 -0.000159601341179
9 0.000002376576040
10 0.000666944459169
11 -0.000635610525696
12 -0.000031333933472
13 0.019308968324423
14 0.62633497915555
15 0.009029354492547
16 0.010016769089952
17 -0.002324609539231
18 0.000939007810440
19 0.009420993602331
20 0.35453456922334
21 -0.010275220568031
22 0.002384920949494
23 0.000365338776207
24 -0.008929582016529
25 -0.36376703819924
26 0.000262068556255
27 -0.000060701556690
28 0.016558957209469
29 -0.000233861690823
30 0.009232823610352
31 -0.000008410207492
32 0.000010279936873
33 -0.002172817719239
34 -0.000031314268906
35 -0.000001033824602
 Sym=     19.1
 Ene=       1.2143
 Spin= Alpha
 Occup=    0.000000
1 0.000001091905790
2 0.000004689388528
3 -0.000007583601324
4 -0.000051829581491
5 0.003595827049623
6 -0.000000340815684
7 -0.000159622447659
8 0.011070813572704
9 0.000002252474621
10 -0.016733622791149
11 0.016759921453950
12 -0.000026298662801
13 0.000715228658854
14 0.009030633506847
15 -0.62633594437374
16 0.006084633060022
17 -0.001411864529478
18 -0.009251068635093
19 -0.010984909748877
20 0.21535081721503
21 0.005632919739719
22 -0.001307077002459
23 0.009115471988485
24 -0.011537622925797
25 0.19935813337857
26 -0.011714122861440
27 0.002718970479315
28 0.000393120247530
29 0.004659449646135
30 -0.41471188984019
31 -0.000007172607125
32 0.000008811769365
33 -0.000031337129668
34 0.002172809638258
35 -0.000001027180531
 Sym=     20.1
 Ene=       1.5151
 Spin= Alpha
 Occup=    0.000000
1 -0.000000044535618
2 -0.000000205982387
3 0.000000226541764
4 -0.003624324933513
5 -0.005303278653382
6 -0.000000077775310
7 -0.025629694147181
8 -0.037489937478017
9 -0.000000073307985
10 0.021461492703161
11 -0.021461574381952
12 0.000000081678792
13 0.016098072172664
14 -0.000997705844790
15 -0.001460073349845
16 0.002760577709346
17 0.001031185446706
18 0.013148029141718
19 0.021029852439093
20 -0.000169121983487
21 -0.036390067013151
22 -0.013580087836669
23 0.002378096666189
24 0.013911701706297
25 0.002231600372157
26 0.033629601817934
27 0.012548728622490
28 0.013925654501107
29 0.008143425714163
30 -0.002062277970824
31 -0.000000015708700
32 0.000000020485395
33 -0.56363689650676
34 -0.82455651275138
35 -0.000000172617710
 Sym=     21.1
 Ene=       1.5151
 Spin= Alpha
 Occup=    0.000000
1 -0.000001302687717
2 -0.000005751028473
3 0.000010251949309
4 0.005299548106866
5 -0.003623384623833
6 -0.000000994804483
7 0.037498342654311
8 -0.025629573100257
9 -0.000000860473252
10 0.013941133133621
11 -0.013940781030623
12 -0.000000352102998
13 -0.024782464304019
14 0.001458046413002
15 -0.000997014525215
16 -0.040422588283418
17 -0.015096199084859
18 -0.007694466508156
19 0.006485154610566
20 0.002479365246143
21 0.017822626854919
22 0.006652921079787
23 -0.014811104822893
24 0.017257016675044
25 -0.001091773071032
26 0.022601768106422
27 0.008435476331389
28 -0.020578549392361
29 0.005708122043499
30 -0.001384969494728
31 -0.000000473270662
32 0.000000601019825
33 0.82455652625715
34 -0.56363696530244
35 0.000000954788588
 Sym=     22.1
 Ene=       1.5261
 Spin= Alpha
 Occup=    0.000000
1 0.029841618194152
2 0.14317493131546
3 -0.16941801181839
4 -0.000003098211118
5 0.000002392521240
6 -0.19105312183338
7 0.000011419322581
8 -0.000009107672221
9 0.18827189963402
10 0.046710574193650
11 0.046703442213871
12 -0.093414016407521
13 -0.000005334639379
14 -0.000004254123725
15 0.000003325930606
16 -0.014609411451476
17 0.010896058808848
18 -0.006730678566289
19 0.003957347700881
20 0.062526475512774
21 -0.014593856884782
22 0.010894821264364
23 0.006790071263271
24 0.003853869741088
25 0.062524768277705
26 -0.014590739535301
27 0.010894297981550
28 -0.000064413682539
29 -0.007807139388582
30 0.062523808869264
31 -0.063294006830039
32 0.087414285000869
33 -0.000001372480898
34 0.000000791339388
35 0.98710252819933
 Sym=     23.1
 Ene=       1.6132
 Spin= Alpha
 Occup=    0.000000
1 -0.000000000036197
2 0.000000000029723