[Molden Format]
[Molpro variables]
_NUMVAR=  703.0000000000000    
_EV2006= 0.3674930886769165E-01
_EV= 0.3674932534394180E-01
_KJOULE= 0.3808798324128737E-03
_KJOULE/MOL= 0.3808798324128737E-03
_CM= 0.4556335267302901E-05
_CM-1= 0.4556335267302901E-05
_KCAL= 0.1593601117815568E-02
_KCAL/MOL= 0.1593601117815568E-02
_KELVIN2006= 0.3166828861084835E-05
_KELVIN= 0.3166814820820034E-05
_HERTZ2006= 0.1519829850815779E-15
_HERTZ= 0.1519829846011223E-15
_HZ2006= 0.1519829850815779E-15
_HZ= 0.1519829846011223E-15
_TOA2006= 0.5291772490000000    
_TOA= 0.5291772090000000    
_TOANG2006= 0.5291772490000000    
_TOANG= 0.5291772090000000    
_TORAD= 0.1745329251994330E-01
_TOCM=  219474.6306700000    
_TODEBYE=  2.541580000000000    
_TOEV2006=  27.21139610000000    
_TOEV=  27.21138390000000    
_TOHERTZ2006=  6579683899900000.    
_TOHERTZ=  6579683920700000.    
_TOHZ2006=  6579683899900000.    
_TOHZ=  6579683920700000.    
_TOK2006=  315773.3000000000    
_TOK=  315774.7000000000    
_TOKCAL=  627.5096000000000    
_TOKELVIN2006=  315773.3000000000    
_TOKELVIN=  315774.7000000000    
_TOKJ=  2625.500000000000    
_TOKJOULE=  2625.500000000000    
_ANG2006=  1.889725988578923    
_ANG=  1.889726131421507    
_ANGSTROM2006=  1.889725988578923    
_ANGSTROM=  1.889726131421507    
_IGNORE_UNDEF=  2.000000000000000    
_STRICTCHECK=  0.000000000000000    
_SEW_ONEEL=  0.000000000000000    
_CPPDONE=FALSE
_DKROLL_DONE=  0.000000000000000    
_FOCKDONE=  0.000000000000000    
_GRADONE=FALSE
_HESSDONE=FALSE
_INTDONE=TRUE
_SCFDONE=FALSE
_MODUL_CUDA=FALSE
_MODUL_SLATER=FALSE
_MODUL_MRCC=FALSE
_MRCC_EXEC=
_FITC_AO_SAVED=FALSE
_FITC_MO_SAVED=FALSE
_SHARED_FS=TRUE
_LSTYP=SEWARD
_INTYP=INTS
_GEOMTYP=ZMAT
_GRADTYP=ALASKA
_DIRECT=FALSE
_SYNCM=  0.000000000000000    
_BASIS=CC-PVTZ
_ZORIENT=  1.000000000000000    
_NELEC=  18.00000000000000    
_SPIN=  0.000000000000000    
!SPIN=  0.000000000000000    
_QSDSTEP=  0.000000000000000    
_QSDIRC=  0.000000000000000    
_PROGRAM=RS2C
_CPUSTEP=  7.860000000000003    
_SYSSTEP= 0.3800000000000001    
_WALLSTEP=  9.480000000000000    
!DFMP2=  0.000000000000000    
!DFSCF=  0.000000000000000    
!SCSGRD=  0.000000000000000    
_BASINP=  610.0000000000000    
_CPUTOT=  25.34000000000000    
_DFTEXFAC=  1.000000000000000    
_DMX=  0.000000000000000    
_DMY=  0.000000000000000    
_DMZ=  0.000000000000000    
_EMP2= -79.53611625595414    
_ENERGR= -79.24563313320519    
_ENERGU= -79.53611625595414    
_ENERGY= -79.53611625595414    
_ENUC=  35.22682587580729    
_GRADEXFAC=  9999.000000000000    
_GRADMETHOD=FALSE
!GRID_FREEZE= -1.000000000000000    
_ITERATIONS=  7.000000000000000    
_LASTNELEC=  8.000000000000000    
_LASTSPIN=  0.000000000000000    
_LASTSYM=  1.000000000000000    
_MPP_PROG=  1.000000000000000    
_NPROC_MPP=  4.000000000000000    
_NPROC_SMP=  1.000000000000000    
_NUMSTEP=  0.000000000000000    
_ORBITAL=  2145.200000000000    
_PI=  3.141592653589793    
!MCACT=  8.000000000000000    
!MCCLOSED=  5.000000000000000    
!MCFREEZE=  0.000000000000000    
!MCMS2=  0.000000000000000    
!MCNEL=  8.000000000000000    
!MCNSTSYM=  1.000000000000000    
!MCSTATE=  1.000000000000000    
!MCSYM=  1.000000000000000    
!MCWEIGHT=  1.000000000000000    
_SEIG_MIN= 0.1310322948703123E-02
_SEWPROP=TRUE
_STATUS=  1.000000000000000    
_SYSTOT=  1.830000000000000    
_VERSION=  2010001.000000000    
_WALLTOT=  35.61000000000000    
_DATE=01-Aug-19
_LASTORB=MCSCF
_MACHINE=Linux-2.6.34-12-desktop/tt109(x86_64) 64 bit mpp version
_OUTPUT=/home/carlo/qm/combustion/test_diss/c2h6/newalg/dist_24_tz/molpro.xml
_PGROUP=C1
_TIME=23:29:06
_LIBMOL=/programs/molpro2010p/bin/../lib/
!SURFREC=  0.000000000000000    
!POLYREC=  0.000000000000000    
!DIPREC=  0.000000000000000    
!VSCFREC=  0.000000000000000    
!VCIREC=  0.000000000000000    
!PVCIREC=  0.000000000000000    
!VMP2REC=  0.000000000000000    
!VMCSCFREC=  0.000000000000000    
!GAREC=  0.000000000000000    
!SCFORB=  21002.00000000000    
!MCORB=  21452.00000000000    
!CIOCC=  13.00000000000000    
!CICORE=  2.000000000000000    
!CICLOS=  5.000000000000000    
!CIISTSYM=  1.000000000000000    
!CIISTMS2=  0.000000000000000    
!CIISTNEL=  14.00000000000000    
!NEWMOL=  0.000000000000000    
!NEWSYM=  0.000000000000000    
_SLFILES=slscratch
_NGSSTO=  9.000000000000000    
_SIN=SIN
_COS=COS
_TAN=TAN
_ACOS=ACOS
_ASIN=ASIN
_ATAN=ATAN
_COSH=COSH
_SINH=SINH
_TANH=TANH
_ABS=ABS
_MOD=MOD
_ERF=ERF
_REFC=REFC
_ERFC=ERFC
_HYPOT=HYPOT
_J0=J0
_J1=J1
_JN=JN
_GAMMA=GAMMA
_LGAMMA=LGAMMA
_Y0=Y0
_Y1=Y1
_YN=YN
_EXP=EXP
_LOG=LOG
_LOG10=LOG10
_SQRT=SQRT
_INT=INT
_NINT=NINT
_MAX=MAX
_MIN=MIN
_COSMO=  0.000000000000000    
_COSMOIT=  0.000000000000000    
_COSMOES=  0.000000000000000    
_COSMOEDS=  0.000000000000000    
_COSMOEC=  0.000000000000000    
_COSMOEDCORR=  0.000000000000000    
_FEPSI=  1.000000000000000    
_SL_IsMM=  0.000000000000000    
_SL_NSYM=  0.000000000000000    
_SL_System_BitSw=  0.000000000000000    
_SL_Unique_atoms=  0.000000000000000    
_SL_GRAD=  0.000000000000000    
_SL_MAXUPD_Hess=  5.000000000000000    
_SL_N_PRINT_COD=  5.000000000000000    
_SL_PRINT_CODES=  0.000000000000000    
_SL_BasType=  0.000000000000000    
_SL_Energy_Pred=  0.000000000000000    
_SL_New_Coords=  0.000000000000000    
_SL_Total_Nuclea=  0.000000000000000    
_SL_Highest_Mltp=  0.000000000000000    
_SL_Ref_Geom=  0.000000000000000    
!LATTICE= -1.000000000000000    
!NEWLATTICE=  0.000000000000000    
!LATGRAD_VAR=FALSE
!SEW_LATTICE=  1.000000000000000    
!LOCAL=  0.000000000000000    
!SAVEDOM= -1.000000000000000    
!RESTDOM= -1.000000000000000    
!SAVEDOM_HF= -1.000000000000000    
!RESTDOM_HF= -1.000000000000000    
!HESSREC=  0.000000000000000    
!FREQREC=  0.000000000000000    
!NMODREC=  0.000000000000000    
!GTASKS=  0.000000000000000    
!HTASKS=  0.000000000000000    
!THRCHG= 0.1000000000000000    
!DEBUG= -1.000000000000000    
!CFIT_CPHF=  0.000000000000000    
!RDOMAUX_CPHF=  3.000000000000000    
!THRAO_CPHF= 0.1000000000000000E-09
!THRMO_CPHF= 0.1000000000000000E-08
!THROV_CPHF= 0.1000000000000000E-11
!THRSW_CPHF= 0.1000000000000000E-09
!THRPROD_CPHF= 0.1000000000000000E-08
!THRAOPR_CPHF= 0.1000000000000000E-11
!CFIT_SCFGRD=  0.000000000000000    
!RDOMAUX_SCFGRD=  5.000000000000000    
!THRAO_SCFGRD= 0.1000000000000000E-09
!THRMO_SCFGRD= 0.1000000000000000E-08
!THROV_SCFGRD= 0.1000000000000000E-11
!THRSW_SCFGRD= 0.1000000000000000E-09
!THRPROD_SCFGRD= 0.1000000000000000E-08
!THRAOPR_SCFGRD= 0.1000000000000000E-11
!LOCFIT_SCF=  0.000000000000000    
!LOCFIT_MP2= -1.000000000000000    
_RIDOM=  0.000000000000000    
!CC2_METHOD=  0.000000000000000    
_BASIS2006=FALSE
_SVDDEL= -1.000000000000000    
_SVDDELA= -1.000000000000000    
_SVDDELP= -1.000000000000000    
_SVDDELF= -1.000000000000000    
_SVDDELS= -1.000000000000000    
_SVDDEL_ABS= -1.000000000000000    
_SVDDELA_ABS= -1.000000000000000    
_SVDDELP_ABS= -1.000000000000000    
_SVDDELF_ABS= -1.000000000000000    
_SVDDELS_ABS= -1.000000000000000    
_MAXBASIS=  0.000000000000000    
!OPT_CONICAL=  0.000000000000000    
!CLEARSP_JGRID=  0.000000000000000    
RCC2=  1.094076151079765    
RCC3=  1.094076375517364    
RCC4=  1.100109190512275    
RCH1=  1.100080244521050    
RCH2=  1.100078743346285    
RCH3=  1.093232026939812    
ACCC1=  101.6543613300274    
AHCC1=  101.6556558776470    
AHCC2=  101.5280063085681    
AHCC3=  101.5394437723715    
AHCC4=  101.6510313696837    
AHCC5=  101.6667231828254    
B1=  120.0105429414916    
B5= -119.9944415017086    
B3=  119.8405512549389    
B4= -120.0778756864006    
B2=  60.06955072564161    
RCC1=  2.400000000000000    
GX1=-0.1150504257473412E-02
GY1= 0.1974911418745753E-05
GZ1= -2.267913301965370    
GX2=-0.8498846237328329E-03
GY2=-0.7778405963218024E-05
GZ2=  2.267429403472656    
GX3= -1.008837322084703    
GY3=  1.756136902975136    
GZ3=  2.685150821789123    
GX4= -1.017354565703494    
GY4= -1.751227449969347    
GZ4=  2.685189679681513    
GX5=  2.035127775075789    
GY5=-0.4945179943407738E-02
GZ5=  2.687687589090112    
GX6=  1.023861451245551    
GY6=  1.760205343360555    
GZ6= -2.683429264205713    
GX7=  1.015555162290900    
GY7= -1.764911552287227    
GZ7= -2.683842330315559    
GX8= -2.024515098942811    
GY8= 0.4811092533313218E-02
GZ8= -2.684990175825951    
CBSEN= -79.53611625595414    
[Atoms] Angs
C     1    6        -0.0006088206        0.0000010451       -1.2001280314
C     2    6        -0.0004497396       -0.0000041162        1.1998719633
H     3    1        -0.5338537184        0.9293076249        1.4209206176
H     4    1        -0.5383608496       -0.9267096543        1.4209411803
H     5    1         1.0769432360       -0.0026168765        1.4222630171
H     6    1         0.5418041452        0.9314605509       -1.4200096086
H     7    1         0.5374086464       -0.9339509694       -1.4202281938
H     8    1        -1.0713272496        0.0025459205       -1.4208356074
[GTO]
  1 0
 s   10  1.00
  0.8236000000D+04  0.5309998617D-03
  0.1235000000D+04  0.4107998930D-02
  0.2808000000D+03  0.2108699451D-01
  0.7927000000D+02  0.8185297868D-01
  0.2559000000D+02  0.2348169388D+00
  0.8997000000D+01  0.4344008869D+00
  0.3319000000D+01  0.3461289099D+00
  0.9059000000D+00  0.3937798974D-01
  0.3643000000D+00 -0.8982997660D-02
  0.1285000000D+00  0.2384999379D-02
 s   10  1.00
  0.8236000000D+04 -0.1129999414D-03
  0.1235000000D+04 -0.8779995449D-03
  0.2808000000D+03 -0.4539997647D-02
  0.7927000000D+02 -0.1813299060D-01
  0.2559000000D+02 -0.5575997110D-01
  0.8997000000D+01 -0.1268949342D+00
  0.3319000000D+01 -0.1703519117D+00
  0.9059000000D+00  0.1403819272D+00
  0.3643000000D+00  0.5986836897D+00
  0.1285000000D+00  0.3953887950D+00
 s   10  1.00
  0.8236000000D+04  0.0000000000D+00
  0.1235000000D+04  0.0000000000D+00
  0.2808000000D+03  0.0000000000D+00
  0.7927000000D+02  0.0000000000D+00
  0.2559000000D+02  0.0000000000D+00
  0.8997000000D+01  0.0000000000D+00
  0.3319000000D+01  0.0000000000D+00
  0.9059000000D+00  0.1000000000D+01
  0.3643000000D+00  0.0000000000D+00
  0.1285000000D+00  0.0000000000D+00
 s   10  1.00
  0.8236000000D+04  0.0000000000D+00
  0.1235000000D+04  0.0000000000D+00
  0.2808000000D+03  0.0000000000D+00
  0.7927000000D+02  0.0000000000D+00
  0.2559000000D+02  0.0000000000D+00
  0.8997000000D+01  0.0000000000D+00
  0.3319000000D+01  0.0000000000D+00
  0.9059000000D+00  0.0000000000D+00
  0.3643000000D+00  0.0000000000D+00
  0.1285000000D+00  0.1000000000D+01
 p    5  1.00
  0.1871000000D+02  0.1403099838D-01
  0.4133000000D+01  0.8686598995D-01
  0.1200000000D+01  0.2902159664D+00
  0.3827000000D+00  0.5010079421D+00
  0.1209000000D+00  0.3434059603D+00
 p    5  1.00
  0.1871000000D+02  0.0000000000D+00
  0.4133000000D+01  0.0000000000D+00
  0.1200000000D+01  0.0000000000D+00
  0.3827000000D+00  0.1000000000D+01
  0.1209000000D+00  0.0000000000D+00
 p    5  1.00
  0.1871000000D+02  0.0000000000D+00
  0.4133000000D+01  0.0000000000D+00
  0.1200000000D+01  0.0000000000D+00
  0.3827000000D+00  0.0000000000D+00
  0.1209000000D+00  0.1000000000D+01
 d    1  1.00
  0.1097000000D+01  0.1000000000D+01
 d    1  1.00
  0.3180000000D+00  0.1000000000D+01
 f    1  1.00
  0.7610000000D+00  0.1000000000D+01
  
  2 0
 s   10  1.00
  0.8236000000D+04  0.5309998617D-03
  0.1235000000D+04  0.4107998930D-02
  0.2808000000D+03  0.2108699451D-01
  0.7927000000D+02  0.8185297868D-01
  0.2559000000D+02  0.2348169388D+00
  0.8997000000D+01  0.4344008869D+00
  0.3319000000D+01  0.3461289099D+00
  0.9059000000D+00  0.3937798974D-01
  0.3643000000D+00 -0.8982997660D-02
  0.1285000000D+00  0.2384999379D-02
 s   10  1.00
  0.8236000000D+04 -0.1129999414D-03
  0.1235000000D+04 -0.8779995449D-03
  0.2808000000D+03 -0.4539997647D-02
  0.7927000000D+02 -0.1813299060D-01
  0.2559000000D+02 -0.5575997110D-01
  0.8997000000D+01 -0.1268949342D+00
  0.3319000000D+01 -0.1703519117D+00
  0.9059000000D+00  0.1403819272D+00
  0.3643000000D+00  0.5986836897D+00
  0.1285000000D+00  0.3953887950D+00
 s   10  1.00
  0.8236000000D+04  0.0000000000D+00
  0.1235000000D+04  0.0000000000D+00
  0.2808000000D+03  0.0000000000D+00
  0.7927000000D+02  0.0000000000D+00
  0.2559000000D+02  0.0000000000D+00
  0.8997000000D+01  0.0000000000D+00
  0.3319000000D+01  0.0000000000D+00
  0.9059000000D+00  0.1000000000D+01
  0.3643000000D+00  0.0000000000D+00
  0.1285000000D+00  0.0000000000D+00
 s   10  1.00
  0.8236000000D+04  0.0000000000D+00
  0.1235000000D+04  0.0000000000D+00
  0.2808000000D+03  0.0000000000D+00
  0.7927000000D+02  0.0000000000D+00
  0.2559000000D+02  0.0000000000D+00
  0.8997000000D+01  0.0000000000D+00
  0.3319000000D+01  0.0000000000D+00
  0.9059000000D+00  0.0000000000D+00
  0.3643000000D+00  0.0000000000D+00
  0.1285000000D+00  0.1000000000D+01
 p    5  1.00
  0.1871000000D+02  0.1403099838D-01
  0.4133000000D+01  0.8686598995D-01
  0.1200000000D+01  0.2902159664D+00
  0.3827000000D+00  0.5010079421D+00
  0.1209000000D+00  0.3434059603D+00
 p    5  1.00
  0.1871000000D+02  0.0000000000D+00
  0.4133000000D+01  0.0000000000D+00
  0.1200000000D+01  0.0000000000D+00
  0.3827000000D+00  0.1000000000D+01
  0.1209000000D+00  0.0000000000D+00
 p    5  1.00
  0.1871000000D+02  0.0000000000D+00
  0.4133000000D+01  0.0000000000D+00
  0.1200000000D+01  0.0000000000D+00
  0.3827000000D+00  0.0000000000D+00
  0.1209000000D+00  0.1000000000D+01
 d    1  1.00
  0.1097000000D+01  0.1000000000D+01
 d    1  1.00
  0.3180000000D+00  0.1000000000D+01
 f    1  1.00
  0.7610000000D+00  0.1000000000D+01
  
  3 0
 s    5  1.00
  0.3387000000D+02  0.6067999217D-02
  0.5095000000D+01  0.4530799416D-01
  0.1159000000D+01  0.2028219738D+00
  0.3258000000D+00  0.5039029350D+00
  0.1027000000D+00  0.3834209505D+00
 s    5  1.00
  0.3387000000D+02  0.0000000000D+00
  0.5095000000D+01  0.0000000000D+00
  0.1159000000D+01  0.0000000000D+00
  0.3258000000D+00  0.1000000000D+01
  0.1027000000D+00  0.0000000000D+00
 s    5  1.00
  0.3387000000D+02  0.0000000000D+00
  0.5095000000D+01  0.0000000000D+00
  0.1159000000D+01  0.0000000000D+00
  0.3258000000D+00  0.0000000000D+00
  0.1027000000D+00  0.1000000000D+01
 p    1  1.00
  0.1407000000D+01  0.1000000000D+01
 p    1  1.00
  0.3880000000D+00  0.1000000000D+01
 d    1  1.00
  0.1057000000D+01  0.1000000000D+01
  
  4 0
 s    5  1.00
  0.3387000000D+02  0.6067999217D-02
  0.5095000000D+01  0.4530799416D-01
  0.1159000000D+01  0.2028219738D+00
  0.3258000000D+00  0.5039029350D+00
  0.1027000000D+00  0.3834209505D+00
 s    5  1.00
  0.3387000000D+02  0.0000000000D+00
  0.5095000000D+01  0.0000000000D+00
  0.1159000000D+01  0.0000000000D+00
  0.3258000000D+00  0.1000000000D+01
  0.1027000000D+00  0.0000000000D+00
 s    5  1.00
  0.3387000000D+02  0.0000000000D+00
  0.5095000000D+01  0.0000000000D+00
  0.1159000000D+01  0.0000000000D+00
  0.3258000000D+00  0.0000000000D+00
  0.1027000000D+00  0.1000000000D+01
 p    1  1.00
  0.1407000000D+01  0.1000000000D+01
 p    1  1.00
  0.3880000000D+00  0.1000000000D+01
 d    1  1.00
  0.1057000000D+01  0.1000000000D+01
  
  5 0
 s    5  1.00
  0.3387000000D+02  0.6067999217D-02
  0.5095000000D+01  0.4530799416D-01
  0.1159000000D+01  0.2028219738D+00
  0.3258000000D+00  0.5039029350D+00
  0.1027000000D+00  0.3834209505D+00
 s    5  1.00
  0.3387000000D+02  0.0000000000D+00
  0.5095000000D+01  0.0000000000D+00
  0.1159000000D+01  0.0000000000D+00
  0.3258000000D+00  0.1000000000D+01
  0.1027000000D+00  0.0000000000D+00
 s    5  1.00
  0.3387000000D+02  0.0000000000D+00
  0.5095000000D+01  0.0000000000D+00
  0.1159000000D+01  0.0000000000D+00
  0.3258000000D+00  0.0000000000D+00
  0.1027000000D+00  0.1000000000D+01
 p    1  1.00
  0.1407000000D+01  0.1000000000D+01
 p    1  1.00
  0.3880000000D+00  0.1000000000D+01
 d    1  1.00
  0.1057000000D+01  0.1000000000D+01
  
  6 0
 s    5  1.00
  0.3387000000D+02  0.6067999217D-02
  0.5095000000D+01  0.4530799416D-01
  0.1159000000D+01  0.2028219738D+00
  0.3258000000D+00  0.5039029350D+00
  0.1027000000D+00  0.3834209505D+00
 s    5  1.00
  0.3387000000D+02  0.0000000000D+00
  0.5095000000D+01  0.0000000000D+00
  0.1159000000D+01  0.0000000000D+00
  0.3258000000D+00  0.1000000000D+01
  0.1027000000D+00  0.0000000000D+00
 s    5  1.00
  0.3387000000D+02  0.0000000000D+00
  0.5095000000D+01  0.0000000000D+00
  0.1159000000D+01  0.0000000000D+00
  0.3258000000D+00  0.0000000000D+00
  0.1027000000D+00  0.1000000000D+01
 p    1  1.00
  0.1407000000D+01  0.1000000000D+01
 p    1  1.00
  0.3880000000D+00  0.1000000000D+01
 d    1  1.00
  0.1057000000D+01  0.1000000000D+01
  
  7 0
 s    5  1.00
  0.3387000000D+02  0.6067999217D-02
  0.5095000000D+01  0.4530799416D-01
  0.1159000000D+01  0.2028219738D+00
  0.3258000000D+00  0.5039029350D+00
  0.1027000000D+00  0.3834209505D+00
 s    5  1.00
  0.3387000000D+02  0.0000000000D+00
  0.5095000000D+01  0.0000000000D+00
  0.1159000000D+01  0.0000000000D+00
  0.3258000000D+00  0.1000000000D+01
  0.1027000000D+00  0.0000000000D+00
 s    5  1.00
  0.3387000000D+02  0.0000000000D+00
  0.5095000000D+01  0.0000000000D+00
  0.1159000000D+01  0.0000000000D+00
  0.3258000000D+00  0.0000000000D+00
  0.1027000000D+00  0.1000000000D+01
 p    1  1.00
  0.1407000000D+01  0.1000000000D+01
 p    1  1.00
  0.3880000000D+00  0.1000000000D+01
 d    1  1.00
  0.1057000000D+01  0.1000000000D+01
  
  8 0
 s    5  1.00
  0.3387000000D+02  0.6067999217D-02
  0.5095000000D+01  0.4530799416D-01
  0.1159000000D+01  0.2028219738D+00
  0.3258000000D+00  0.5039029350D+00
  0.1027000000D+00  0.3834209505D+00
 s    5  1.00
  0.3387000000D+02  0.0000000000D+00
  0.5095000000D+01  0.0000000000D+00
  0.1159000000D+01  0.0000000000D+00
  0.3258000000D+00  0.1000000000D+01
  0.1027000000D+00  0.0000000000D+00
 s    5  1.00
  0.3387000000D+02  0.0000000000D+00
  0.5095000000D+01  0.0000000000D+00
  0.1159000000D+01  0.0000000000D+00
  0.3258000000D+00  0.0000000000D+00
  0.1027000000D+00  0.1000000000D+01
 p    1  1.00
  0.1407000000D+01  0.1000000000D+01
 p    1  1.00
  0.3880000000D+00  0.1000000000D+01
 d    1  1.00
  0.1057000000D+01  0.1000000000D+01
 
 
[MO]
 Sym=      1.1
 Ene=     -11.2309
 Spin= Alpha
 Occup=    2.000000
1 0.002910990105932
2 -0.000008840496621
3 0.000012002261613
4 -0.000661487905764
5 0.000012137714218
6 -0.000000025278877
7 -0.000420702086376
8 0.000000458764690
9 0.000000146015136
10 0.000158982568810
11 0.000003152308967
12 0.000000089728374
13 -0.000148630078301
14 0.000024988914115
15 0.000026318624075
16 -0.000051307538189
17 0.000000004889123
18 -0.000002766091419
19 0.000000003460068
20 -0.000082439922039
21 -0.000071987043313
22 0.000154426965353
23 0.000000133917114
24 -0.000023727875682
25 0.000000090173330
26 0.000023880540127
27 0.000000153701008
28 0.000051399988947
29 -0.000027787785960
30 -0.000000202029206
31 -0.000033252684781
32 -0.000004251320677
33 -0.000000004182335
34 -0.000035707636817
35 0.000000003770628
36 0.99945999007142
37 -0.000365756532675
38 0.001453522971236
39 0.002661937145614
40 -0.003058659630942
41 0.000007441507585
42 -0.000279484679103
43 0.000438603080406
44 -0.000001027102659
45 0.000886431347882
46 0.000546393991424
47 -0.000001297682019
48 0.000027925751893
49 0.000213119024961
50 0.000328657998765
51 -0.000541777023726
52 0.000000321591752
53 -0.000027661509050
54 0.000000051488112
55 0.000093747041288
56 0.000153291138592
57 -0.000247038179880
58 0.000000150200292
59 -0.000029670061056
60 0.000000090258300
61 0.000513066461547
62 0.000003765473952
63 -0.000234417042732
64 -0.000692207681149
65 -0.000005029572591
66 0.000157291051563
67 0.000003856790153
68 -0.000000022340844
69 0.000157212414017
70 0.000000007226649
71 0.001205440496594
72 -0.000842224718135
73 -0.001017104360430
74 -0.000164607393615
75 0.000253530853016
76 0.000055112496253
77 -0.000142603546227
78 0.000179561184288
79 0.000077990481480
80 0.000057368069507
81 -0.000139420227912
82 0.000082052158404
83 0.000211808099918
84 0.000045794538529
85 -0.000078676214373
86 0.001205429842684
87 -0.000842124723144
88 -0.001017059393437
89 -0.000165836638394
90 -0.000252723845518
91 0.000055119285402
92 -0.000143445511547
93 -0.000178828624190
94 0.000077992273650
95 0.000055582043283
96 -0.000137627300168
97 0.000082045256884
98 -0.000212895045057
99 0.000046181759226
100 0.000078457487356
101 -0.003067781458264
102 -0.000421186895854
103 -0.000045555535655
104 0.000385795559395
105 -0.000000933890060
106 0.000078070555143
107 0.000365500403032
108 -0.000000893038347
109 0.000111021045476
110 -0.000274124527876
111 0.000181349873922
112 0.000092774653954
113 0.000001276583121
114 -0.000101970114134
115 0.000000245100755
116 0.000107795604281
117 0.000111112738447
118 -0.000017642561606
119 -0.000001781337170
120 -0.000002811216062
121 0.000028907718381
122 -0.000006019858699
123 -0.000011324182131
124 -0.000064962368800
125 0.000018256651091
126 0.000003067671699
127 -0.000021324322790
128 -0.000015588413186
129 0.000003578263913
130 0.000005084247214
131 0.000107712647076
132 0.000111478033908
133 -0.000017540885392
134 -0.000001771509003
135 0.000002823052007
136 0.000028898508676
137 -0.000006003455534
138 0.000011465348919
139 -0.000064794568978
140 0.000018363084855
141 0.000002940486439
142 -0.000021303571294
143 0.000015495583932
144 0.000003537834027
145 -0.000005071863900
146 0.000072654056019
147 0.000117478402411
148 -0.000045973195974
149 0.000003546864278
150 -0.000000008522142
151 0.000030787933807
152 0.000015537914171
153 -0.000000016425074
154 -0.000075002468087
155 -0.000004539594133
156 0.000026394247843
157 -0.000021854653710
158 0.000000088376081
159 -0.000007768326030
160 0.000000017572140
 Sym=      2.1
 Ene=     -11.2229
 Spin= Alpha
 Occup=    2.000000
1 0.99936031518224
2 -0.001505560980756
3 0.001656138323216
4 0.002903353790528
5 -0.002445057426578
6 0.000005787942760
7 0.000493069183878
8 0.000473402102345
9 -0.000000922546482
10 -0.000906383743024
11 0.000466839176782
12 -0.000000995632685
13 -0.000033885993107
14 0.000307274717435
15 0.000224412026679
16 -0.000531686744114
17 -0.000000221600097
18 0.000021112518649
19 0.000000042443634
20 0.000106280873633
21 0.000110018258294
22 -0.000216299131927
23 0.000000047247960
24 0.000012516281971
25 -0.000000008593036
26 -0.000506560917412
27 -0.000003543015183
28 0.000228593148196
29 0.000681097028711
30 0.000004827679202
31 -0.000152729034589
32 -0.000001474241063
33 -0.000000074225525
34 -0.000153960856545
35 0.000000085372554
36 -0.002871033722964
37 0.000040580562843
38 0.000004614323965
39 -0.000698512167100
40 -0.000013410115456
41 0.000000037028800
42 0.000417081756839
43 0.000002856802719
44 0.000000061749995
45 -0.000158004474876
46 0.000005886153734
47 0.000000071132029
48 0.000149283059283
49 0.000024726809547
50 0.000024740317675
51 -0.000049467127222
52 -0.000000003428855
53 0.000001540665436
54 0.000000000212410
55 -0.000069439491317
56 -0.000078381711070
57 0.000147821202386
58 -0.000000061625241
59 0.000020469815917
60 -0.000000044833834
61 -0.000022798569093
62 -0.000000180385204
63 -0.000048647987225
64 0.000033963771612
65 0.000000242065231
66 0.000033826154138
67 -0.000003376281444
68 -0.000000000053085
69 0.000031441969704
70 -0.000000006606738
71 0.000124199764248
72 0.000117239616681
73 -0.000040825005138
74 0.000003093970646
75 -0.000005778777610
76 -0.000030629569293
77 0.000008797401077
78 -0.000015102352771
79 0.000069149277381
80 0.000018196232057
81 0.000004033147123
82 -0.000022229379180
83 0.000013989276266
84 0.000002851074804
85 -0.000006058310738
86 0.000124135376265
87 0.000117446994276
88 -0.000040744524275
89 0.000003122973365
90 0.000005768214733
91 -0.000030629056982
92 0.000008906083138
93 0.000015113322224
94 0.000069112176336
95 0.000018074703461
96 0.000004153999532
97 -0.000022228702993
98 -0.000014061633367
99 0.000002876663433
100 0.000006036332614
101 0.000112569048761
102 0.000115510181249
103 -0.000010993732218
104 -0.000005342219197
105 0.000000015680115
106 -0.000028786660594
107 -0.000013560645095
108 0.000000024604398
109 0.000059683352258
110 -0.000003555268781
111 0.000024969997642
112 -0.000021414728861
113 0.000000080876174
114 -0.000004957635191
115 0.000000012085101
116 -0.001800515501760
117 -0.000514706187656
118 -0.000292748680136
119 0.000173074204080
120 0.000321259823866
121 -0.000068894700615
122 0.000141070744601
123 0.000292633888846
124 -0.000096333719390
125 0.000070311984635
126 -0.000161872580315
127 0.000091560595681
128 -0.000222419812384
129 0.000049653050581
130 0.000084536170495
131 -0.001800809722978
132 -0.000514460472657
133 -0.000292608084055
134 0.000171563636286
135 -0.000322053693871
136 -0.000068966279440
137 0.000139643866254
138 -0.000293227993777
139 -0.000096396016080
140 0.000072123380638
141 -0.000163646213563
142 0.000091522832924
143 0.000221129713397
144 0.000049304549158
145 -0.000084834632964
146 0.001478672488686
147 -0.000740419459389
148 -0.001026323013946
149 -0.000298378309963
150 0.000000713346823
151 -0.000051492517573
152 -0.000175415286649
153 0.000000401798226
154 -0.000062435406641
155 -0.000252182591623
156 0.000168170245073
157 0.000084012346550
158 0.000001149866302
159 -0.000090492277953
160 0.000000224705788
 Sym=      3.1
 Ene=      -0.8087
 Spin= Alpha
 Occup=    2.000000
1 -0.001778245462219
2 0.063506556430928
3 -0.002421477533911
4 -0.007390106895982
5 -0.060142880528160
6 0.000142910200578
7 -0.012349942106301
8 0.003325985455901
9 -0.000008454074160
10 0.004300676905050
11 0.009449761317383
12 -0.000021861461236
13 -0.002038007008786
14 0.001461562151453
15 -0.000936774927650
16 -0.000524787223802
17 -0.000006633791110
18 0.000321302026514
19 -0.000000702797909
20 -0.000428384988819
21 -0.003383360144600
22 0.003811745133418
23 -0.000008274267156
24 -0.001447875852080
25 0.000003819721991
26 -0.000398998673642
27 -0.000003985300330
28 0.001353392108670
29 0.000765264897917
30 0.000004877494548
31 -0.000866984800082
32 -0.000229952003599
33 0.000000469346921
34 -0.000948781253036
35 -0.000000093802062
36 -0.012113319030238
37 0.66475293705468
38 -0.013321296079951
39 -0.090518641718642
40 -0.33484279202978
41 0.000815540507788
42 0.10851997570499
43 0.022717971154939
44 -0.000055296942814
45 -0.002478137138320
46 0.049708161777103
47 -0.000121201866775
48 -0.006788115562516
49 -0.002222251397080
50 0.011771580252507
51 -0.009549328855427
52 0.000039148962033
53 -0.003675608211154
54 0.000008631025613
55 -0.001031817564519
56 0.015057264330391
57 -0.014025446765872
58 0.000045014636843
59 -0.005386084114745
60 0.000012769393035
61 0.004209955051039
62 0.000036680706949
63 -0.003073547894969
64 -0.006745276193594
65 -0.000046450649264
66 0.001796364115108
67 0.001097028787789
68 -0.000002761683256
69 0.002327233100043
70 0.000001586501530
71 0.50746440581740
72 -0.099610866424812
73 -0.15265071990796
74 0.003773574533425
75 -0.010565781415013
76 -0.001762664972556
77 0.000002539589851
78 -0.008127441224961
79 0.000519556511018
80 -0.000927597025911
81 0.001838049661608
82 -0.000910452635696
83 -0.001111039681748
84 -0.000131017046156
85 0.000518627179390
86 0.50746159794595
87 -0.099610817925953
88 -0.15265054179799
89 0.003824814677310
90 0.010547247262599
91 -0.001762895768351
92 0.000041909892471
93 0.008127327057303
94 0.000519745429965
95 -0.000918171439193
96 0.001828623617050
97 -0.000910452177857
98 0.001126477666977
99 -0.000133530202741
100 -0.000518032829925
101 -0.013149694238453
102 -0.030884218064579
103 -0.032638645469929
104 -0.000834036119803
105 0.000002048638038
106 0.001035560269225
107 0.004330335550480
108 -0.000010495449719
109 0.003054090360875
110 -0.000934034184871
111 0.000529570583380
112 0.000404463601491
113 0.000004094697999
114 -0.000699545924638
115 0.000001691929670
116 0.001245635713494
117 -0.003421397798885
118 -0.002290023421652
119 -0.000311462109086
120 0.000184623327391
121 -0.000064949134203
122 -0.000579160042969
123 0.000694499639503
124 -0.000629283651812
125 0.000218095606915
126 -0.000188161599527
127 -0.000029934007388
128 -0.000076352276019
129 0.000031801769743
130 0.000029123537355
131 0.001246795706428
132 -0.003422001010959
133 -0.002290135075036
134 -0.000312298491793
135 -0.000183148640653
136 -0.000065004891065
137 -0.000582149303493
138 -0.000692177611484
139 -0.000629161497878
140 0.000218694051408
141 -0.000188797472609
142 -0.000029896578799
143 0.000074181416864
144 0.000031662000260
145 -0.000029317234084
146 0.093135037676419
147 -0.016589708749118
148 -0.027678526018581
149 0.001849593634583
150 -0.000004384028528
151 0.000673713401973
152 0.001666144053474
153 -0.000003948781990
154 -0.001403600698219
155 0.000409556977310
156 -0.000063751804175
157 -0.000345805173135
158 -0.000001287293958
159 0.000062998897515
160 -0.000000159834411
 Sym=      4.1
 Ene=      -0.6969
 Spin= Alpha
 Occup=    2.000000
1 -0.009217428358025
2 0.50292359275969
3 -0.010465321649380
4 -0.066740971578952
5 -0.50180700901659
6 0.001191064775434
7 -0.082207730690295
8 0.034303527544021
9 -0.000080864488409
10 0.000808756808335
11 0.073229074028874
12 -0.000173307720321
13 0.005344791778114
14 0.014323769851706
15 -0.006952705579324
16 -0.007371064272383
17 -0.000058345673216
18 0.005691236026724
19 -0.000013349221881
20 0.017961745735540
21 -0.006031516970575
22 -0.011930228764965
23 -0.000066007489509
24 0.009213061138013
25 -0.000021221401452
26 -0.004703298828327
27 -0.000023216490998
28 0.002103463131630
29 0.004463521986586
30 0.000036091793412
31 -0.001864267094161
32 0.001846615552594
33 -0.000004943602170
34 -0.000957824836134
35 0.000002772733340
36 0.001311510772210
37 -0.097373766035695
38 0.001123398370135
39 0.013757552222410
40 0.049957323431984
41 -0.000121619348378
42 -0.013765884161301
43 -0.004548811731456
44 0.000010925143667
45 -0.002862083969980
46 -0.006402510768015
47 0.000015496621557
48 0.003241160558972
49 0.000310631663668
50 -0.002015525112354
51 0.001704893448686
52 -0.000006534357642
53 0.001095143227758