[Molden Format]
[Molpro variables]
_NUMVAR=  691.0000000000000    
_EV2006= 0.3674930886769165E-01
_EV= 0.3674932534394180E-01
_KJOULE= 0.3808798324128737E-03
_KJOULE/MOL= 0.3808798324128737E-03
_CM= 0.4556335267302901E-05
_CM-1= 0.4556335267302901E-05
_KCAL= 0.1593601117815568E-02
_KCAL/MOL= 0.1593601117815568E-02
_KELVIN2006= 0.3166828861084835E-05
_KELVIN= 0.3166814820820034E-05
_HERTZ2006= 0.1519829850815779E-15
_HERTZ= 0.1519829846011223E-15
_HZ2006= 0.1519829850815779E-15
_HZ= 0.1519829846011223E-15
_TOA2006= 0.5291772490000000    
_TOA= 0.5291772090000000    
_TOANG2006= 0.5291772490000000    
_TOANG= 0.5291772090000000    
_TORAD= 0.1745329251994330E-01
_TOCM=  219474.6306700000    
_TODEBYE=  2.541580000000000    
_TOEV2006=  27.21139610000000    
_TOEV=  27.21138390000000    
_TOHERTZ2006=  6579683899900000.    
_TOHERTZ=  6579683920700000.    
_TOHZ2006=  6579683899900000.    
_TOHZ=  6579683920700000.    
_TOK2006=  315773.3000000000    
_TOK=  315774.7000000000    
_TOKCAL=  627.5096000000000    
_TOKELVIN2006=  315773.3000000000    
_TOKELVIN=  315774.7000000000    
_TOKJ=  2625.500000000000    
_TOKJOULE=  2625.500000000000    
_ANG2006=  1.889725988578923    
_ANG=  1.889726131421507    
_ANGSTROM2006=  1.889725988578923    
_ANGSTROM=  1.889726131421507    
_IGNORE_UNDEF=  2.000000000000000    
_STRICTCHECK=  0.000000000000000    
_SEW_ONEEL=  0.000000000000000    
_CPPDONE=FALSE
_DKROLL_DONE=  0.000000000000000    
_FOCKDONE=  0.000000000000000    
_GRADONE=FALSE
_HESSDONE=FALSE
_INTDONE=TRUE
_SCFDONE=FALSE
_MODUL_CUDA=FALSE
_MODUL_SLATER=FALSE
_MODUL_MRCC=FALSE
_MRCC_EXEC=
_FITC_AO_SAVED=FALSE
_FITC_MO_SAVED=FALSE
_SHARED_FS=TRUE
_LSTYP=SEWARD
_INTYP=INTS
_GEOMTYP=ZMAT
_GRADTYP=ALASKA
_DIRECT=FALSE
_SYNCM=  0.000000000000000    
_BASIS=CC-PVDZ
_ZORIENT=  1.000000000000000    
_NELEC=  16.00000000000000    
_SPIN=  0.000000000000000    
!SPIN=  0.000000000000000    
_QSDSTEP=  0.000000000000000    
_QSDIRC=  0.000000000000000    
_PROGRAM=RS2
_CPUSTEP= 0.4999999999999982E-01
_SYSSTEP= 0.1999999999999996E-01
_WALLSTEP=  1.060000000000000    
!DFMP2=  0.000000000000000    
!DFSCF=  0.000000000000000    
!SCSGRD=  0.000000000000000    
_BASINP=  610.0000000000000    
_CPUTOT=  1.620000000000000    
_DFTEXFAC=  1.000000000000000    
_DMX= 0.1628227375436806E-05
_DMY= 0.2998873424014954    
_DMZ= 0.2677867046771512    
_EMP2= -78.18276954466643    
_ENERGR= -77.92864434486147    
_ENERGU= -78.16577267019609    
_ENERGY= -78.18276954466643    
_ENUC=  31.12542737504375    
_GRADEXFAC=  9999.000000000000    
_GRADMETHOD=TRUE
!GRID_FREEZE= -1.000000000000000    
_ITERATIONS=  5.000000000000000    
_LASTNELEC=  2.000000000000000    
_LASTSPIN=  0.000000000000000    
_LASTSYM=  1.000000000000000    
_MPP_PROG=  1.000000000000000    
_NPROC_MPP=  4.000000000000000    
_NPROC_SMP=  1.000000000000000    
_NUMSTEP=  0.000000000000000    
_ORBITAL=  2142.200000000000    
_PI=  3.141592653589793    
!MCACT=  2.000000000000000    
!MCCLOSED=  7.000000000000000    
!MCFREEZE=  0.000000000000000    
!MCMS2=  0.000000000000000    
!MCNEL=  2.000000000000000    
!MCNSTSYM=  1.000000000000000    
!MCSTATE=  1.000000000000000    
!MCSYM=  1.000000000000000    
!MCWEIGHT=  1.000000000000000    
_SEIG_MIN= 0.4104389281203051E-02
_SEWPROP=TRUE
_STATUS=  1.000000000000000    
_SYSTOT= 0.2800000000000000    
_VERSION=  2010001.000000000    
_WALLTOT=  11.21000000000000    
_DATE=06-Sep-19
_LASTORB=MCSCF
_MACHINE=Linux-2.6.34-12-desktop/tt106(x86_64) 64 bit mpp version
_OUTPUT=/home/carlo/qm/combustion/barrierless/c2h4_c2h3_h/dist_2.1/molpro.xml
_PGROUP=C1
_TIME=03:40:12
_LIBMOL=/programs/molpro2010p/bin/../lib/
!SURFREC=  0.000000000000000    
!POLYREC=  0.000000000000000    
!DIPREC=  0.000000000000000    
!VSCFREC=  0.000000000000000    
!VCIREC=  0.000000000000000    
!PVCIREC=  0.000000000000000    
!VMP2REC=  0.000000000000000    
!VMCSCFREC=  0.000000000000000    
!GAREC=  0.000000000000000    
!SCFORB=  21002.00000000000    
!MCORB=  21422.00000000000    
!CIOCC=  9.000000000000000    
!CICORE=  2.000000000000000    
!CICLOS=  7.000000000000000    
!CIISTSYM=  1.000000000000000    
!CIISTMS2=  0.000000000000000    
!CIISTNEL=  12.00000000000000    
!NEWMOL=  0.000000000000000    
!NEWSYM=  0.000000000000000    
_SLFILES=slscratch
_NGSSTO=  9.000000000000000    
_SIN=SIN
_COS=COS
_TAN=TAN
_ACOS=ACOS
_ASIN=ASIN
_ATAN=ATAN
_COSH=COSH
_SINH=SINH
_TANH=TANH
_ABS=ABS
_MOD=MOD
_ERF=ERF
_REFC=REFC
_ERFC=ERFC
_HYPOT=HYPOT
_J0=J0
_J1=J1
_JN=JN
_GAMMA=GAMMA
_LGAMMA=LGAMMA
_Y0=Y0
_Y1=Y1
_YN=YN
_EXP=EXP
_LOG=LOG
_LOG10=LOG10
_SQRT=SQRT
_INT=INT
_NINT=NINT
_MAX=MAX
_MIN=MIN
_COSMO=  0.000000000000000    
_COSMOIT=  0.000000000000000    
_COSMOES=  0.000000000000000    
_COSMOEDS=  0.000000000000000    
_COSMOEC=  0.000000000000000    
_COSMOEDCORR=  0.000000000000000    
_FEPSI=  1.000000000000000    
_SL_IsMM=  0.000000000000000    
_SL_NSYM=  0.000000000000000    
_SL_System_BitSw=  0.000000000000000    
_SL_Unique_atoms=  0.000000000000000    
_SL_GRAD=  0.000000000000000    
_SL_MAXUPD_Hess=  5.000000000000000    
_SL_N_PRINT_COD=  5.000000000000000    
_SL_PRINT_CODES=  0.000000000000000    
_SL_BasType=  0.000000000000000    
_SL_Energy_Pred=  0.000000000000000    
_SL_New_Coords=  0.000000000000000    
_SL_Total_Nuclea=  0.000000000000000    
_SL_Highest_Mltp=  0.000000000000000    
_SL_Ref_Geom=  0.000000000000000    
!LATTICE= -1.000000000000000    
!NEWLATTICE=  0.000000000000000    
!LATGRAD_VAR=FALSE
!SEW_LATTICE=  1.000000000000000    
!LOCAL=  0.000000000000000    
!SAVEDOM= -1.000000000000000    
!RESTDOM= -1.000000000000000    
!SAVEDOM_HF= -1.000000000000000    
!RESTDOM_HF= -1.000000000000000    
!HESSREC=  0.000000000000000    
!FREQREC=  0.000000000000000    
!NMODREC=  0.000000000000000    
!GTASKS=  0.000000000000000    
!HTASKS=  0.000000000000000    
!THRCHG= 0.1000000000000000    
!DEBUG= -1.000000000000000    
!CFIT_CPHF=  0.000000000000000    
!RDOMAUX_CPHF=  3.000000000000000    
!THRAO_CPHF= 0.1000000000000000E-09
!THRMO_CPHF= 0.1000000000000000E-08
!THROV_CPHF= 0.1000000000000000E-11
!THRSW_CPHF= 0.1000000000000000E-09
!THRPROD_CPHF= 0.1000000000000000E-08
!THRAOPR_CPHF= 0.1000000000000000E-11
!CFIT_SCFGRD=  0.000000000000000    
!RDOMAUX_SCFGRD=  5.000000000000000    
!THRAO_SCFGRD= 0.1000000000000000E-09
!THRMO_SCFGRD= 0.1000000000000000E-08
!THROV_SCFGRD= 0.1000000000000000E-11
!THRSW_SCFGRD= 0.1000000000000000E-09
!THRPROD_SCFGRD= 0.1000000000000000E-08
!THRAOPR_SCFGRD= 0.1000000000000000E-11
!LOCFIT_SCF=  0.000000000000000    
!LOCFIT_MP2= -1.000000000000000    
_RIDOM=  0.000000000000000    
!CC2_METHOD=  0.000000000000000    
_BASIS2006=FALSE
_SVDDEL= -1.000000000000000    
_SVDDELA= -1.000000000000000    
_SVDDELP= -1.000000000000000    
_SVDDELF= -1.000000000000000    
_SVDDELS= -1.000000000000000    
_SVDDEL_ABS= -1.000000000000000    
_SVDDELA_ABS= -1.000000000000000    
_SVDDELP_ABS= -1.000000000000000    
_SVDDELF_ABS= -1.000000000000000    
_SVDDELS_ABS= -1.000000000000000    
_MAXBASIS=  0.000000000000000    
!OPT_CONICAL=  0.000000000000000    
!CLEARSP_JGRID=  0.000000000000000    
RCC1=  1.335659090545205    
RCC2=  1.098104118673249    
RCC3=  1.092334260850516    
RCH2=  1.090514674234977    
ACCC1=  119.6981818693442    
AHCC1=  122.4115803846648    
AHCC2=  118.1081364350479    
AHCC3=  133.5486563885752    
B1=  179.9999678529880    
B2=  179.9995074474926    
B3=  180.0005379757149    
RCH1=  2.100000000000000    
GX1=-0.2028763311891384E-05
GY1= 0.2490380585738483    
GZ1= -1.196885664783237    
GX2= 0.5652505295905385E-06
GY2=-0.1228978958827501    
GZ2=  1.299589953277202    
GX3= 0.9717831356268283E-05
GY3=  1.508472598410349    
GZ3=  2.582062925023087    
GX4=-0.7102393023017891E-05
GY4= -2.009561280753633    
GZ4=  2.137130947882267    
GX5= 0.1041963732800791E-04
GY5= -2.937626559583621    
GZ5= -3.561957462333199    
GX6= 0.4404704512378481E-05
GY6=  1.935580636610337    
GZ6= -2.381100141648416    
CBSEN= -78.18276954466643    
[Atoms] Angs
C     1    6        -0.0000010736        0.1317852648       -0.6333646156
C     2    6         0.0000002991       -0.0650347655        0.6877133843
H     3    1         0.0000051425        0.7982493195        1.3663688521
H     4    1        -0.0000037584       -1.0634140299        1.1309209903
H     5    1         0.0000055138       -1.5545250239       -1.8849067085
H     6    1         0.0000023309        1.0242651591       -1.2600239273
[GTO]
  1 0
 s    9  1.00
  0.6665000000D+04  0.6920001793D-03
  0.1000000000D+04  0.5329001381D-02
  0.2280000000D+03  0.2707700701D-01
  0.6471000000D+02  0.1017180264D+00
  0.2106000000D+02  0.2747400712D+00
  0.7495000000D+01  0.4485641162D+00
  0.2797000000D+01  0.2850740738D+00
  0.5215000000D+00  0.1520400394D-01
  0.1596000000D+00 -0.3191000827D-02
 s    9  1.00
  0.6665000000D+04 -0.1460000642D-03
  0.1000000000D+04 -0.1154000508D-02
  0.2280000000D+03 -0.5725002519D-02
  0.6471000000D+02 -0.2331201026D-01
  0.2106000000D+02 -0.6395502813D-01
  0.7495000000D+01 -0.1499810660D+00
  0.2797000000D+01 -0.1272620560D+00
  0.5215000000D+00  0.5445292395D+00
  0.1596000000D+00  0.5804962554D+00
 s    9  1.00
  0.6665000000D+04  0.0000000000D+00
  0.1000000000D+04  0.0000000000D+00
  0.2280000000D+03  0.0000000000D+00
  0.6471000000D+02  0.0000000000D+00
  0.2106000000D+02  0.0000000000D+00
  0.7495000000D+01  0.0000000000D+00
  0.2797000000D+01  0.0000000000D+00
  0.5215000000D+00  0.0000000000D+00
  0.1596000000D+00  0.1000000000D+01
 p    4  1.00
  0.9439000000D+01  0.3810902127D-01
  0.2002000000D+01  0.2094801169D+00
  0.5456000000D+00  0.5085572839D+00
  0.1517000000D+00  0.4688422617D+00
 p    4  1.00
  0.9439000000D+01  0.0000000000D+00
  0.2002000000D+01  0.0000000000D+00
  0.5456000000D+00  0.0000000000D+00
  0.1517000000D+00  0.1000000000D+01
 d    1  1.00
  0.5500000000D+00  0.1000000000D+01
  
  2 0
 s    9  1.00
  0.6665000000D+04  0.6920001793D-03
  0.1000000000D+04  0.5329001381D-02
  0.2280000000D+03  0.2707700701D-01
  0.6471000000D+02  0.1017180264D+00
  0.2106000000D+02  0.2747400712D+00
  0.7495000000D+01  0.4485641162D+00
  0.2797000000D+01  0.2850740738D+00
  0.5215000000D+00  0.1520400394D-01
  0.1596000000D+00 -0.3191000827D-02
 s    9  1.00
  0.6665000000D+04 -0.1460000642D-03
  0.1000000000D+04 -0.1154000508D-02
  0.2280000000D+03 -0.5725002519D-02
  0.6471000000D+02 -0.2331201026D-01
  0.2106000000D+02 -0.6395502813D-01
  0.7495000000D+01 -0.1499810660D+00
  0.2797000000D+01 -0.1272620560D+00
  0.5215000000D+00  0.5445292395D+00
  0.1596000000D+00  0.5804962554D+00
 s    9  1.00
  0.6665000000D+04  0.0000000000D+00
  0.1000000000D+04  0.0000000000D+00
  0.2280000000D+03  0.0000000000D+00
  0.6471000000D+02  0.0000000000D+00
  0.2106000000D+02  0.0000000000D+00
  0.7495000000D+01  0.0000000000D+00
  0.2797000000D+01  0.0000000000D+00
  0.5215000000D+00  0.0000000000D+00
  0.1596000000D+00  0.1000000000D+01
 p    4  1.00
  0.9439000000D+01  0.3810902127D-01
  0.2002000000D+01  0.2094801169D+00
  0.5456000000D+00  0.5085572839D+00
  0.1517000000D+00  0.4688422617D+00
 p    4  1.00
  0.9439000000D+01  0.0000000000D+00
  0.2002000000D+01  0.0000000000D+00
  0.5456000000D+00  0.0000000000D+00
  0.1517000000D+00  0.1000000000D+01
 d    1  1.00
  0.5500000000D+00  0.1000000000D+01
  
  3 0
 s    4  1.00
  0.1301000000D+02  0.1968498999D-01
  0.1962000000D+01  0.1379769298D+00
  0.4446000000D+00  0.4781477569D+00
  0.1220000000D+00  0.5012397451D+00
 s    4  1.00
  0.1301000000D+02  0.0000000000D+00
  0.1962000000D+01  0.0000000000D+00
  0.4446000000D+00  0.0000000000D+00
  0.1220000000D+00  0.1000000000D+01
 p    1  1.00
  0.7270000000D+00  0.1000000000D+01
  
  4 0
 s    4  1.00
  0.1301000000D+02  0.1968498999D-01
  0.1962000000D+01  0.1379769298D+00
  0.4446000000D+00  0.4781477569D+00
  0.1220000000D+00  0.5012397451D+00
 s    4  1.00
  0.1301000000D+02  0.0000000000D+00
  0.1962000000D+01  0.0000000000D+00
  0.4446000000D+00  0.0000000000D+00
  0.1220000000D+00  0.1000000000D+01
 p    1  1.00
  0.7270000000D+00  0.1000000000D+01
  
  5 0
 s    4  1.00
  0.1301000000D+02  0.1968498999D-01
  0.1962000000D+01  0.1379769298D+00
  0.4446000000D+00  0.4781477569D+00
  0.1220000000D+00  0.5012397451D+00
 s    4  1.00
  0.1301000000D+02  0.0000000000D+00
  0.1962000000D+01  0.0000000000D+00
  0.4446000000D+00  0.0000000000D+00
  0.1220000000D+00  0.1000000000D+01
 p    1  1.00
  0.7270000000D+00  0.1000000000D+01
  
  6 0
 s    4  1.00
  0.1301000000D+02  0.1968498999D-01
  0.1962000000D+01  0.1379769298D+00
  0.4446000000D+00  0.4781477569D+00
  0.1220000000D+00  0.5012397451D+00
 s    4  1.00
  0.1301000000D+02  0.0000000000D+00
  0.1962000000D+01  0.0000000000D+00
  0.4446000000D+00  0.0000000000D+00
  0.1220000000D+00  0.1000000000D+01
 p    1  1.00
  0.7270000000D+00  0.1000000000D+01
 
 
[MO]
 Sym=      1.1
 Ene=     -11.2835
 Spin= Alpha
 Occup=    2.000000
1 1.00062957098114
2 0.005855243485683
3 -0.007289409442455
4 0.000000007109715
5 0.001023682867852
6 0.000166256159923
7 -0.000000007862666
8 -0.000349119459302
9 -0.000635133560167
10 -0.000564466967186
11 -0.000019265514524
12 0.000583732481711
13 0.000000002469191
14 -0.000000002408268
15 -0.001061254214848
16 0.027386375981239
17 -0.001000356709295
18 0.002587105460276
19 0.000000000864605
20 -0.000067850762965
21 0.000253491368991
22 0.000000000825280
23 0.000398043937222
24 -0.001482130337350
25 0.000232113509281
26 -0.000042348927099
27 -0.000189764582182
28 -0.000000002114042
29 -0.000000003422990
30 -0.000488674295577
31 0.000243092333845
32 0.000058078552936
33 -0.000000001267232
34 -0.000232713439742
35 -0.000120494487762
36 -0.000077062160187
37 0.000573341252120
38 -0.000000000370609
39 -0.000010831980893
40 -0.000125982807744
41 -0.000292180171751
42 0.000252878864263
43 -0.000000000662784
44 0.000191489992686
45 0.000169568173518
46 -0.001149306997175
47 0.001916307233598
48 0.000000003660787
49 0.000727056539105
50 -0.000153010539946
 Sym=      2.1
 Ene=     -11.2544
 Spin= Alpha
 Occup=    2.000000
1 -0.028397029901552
2 -0.000988812274456
3 0.002785062244693
4 -0.000000001241390
5 -0.000103748559491
6 -0.000332351422355
7 0.000000000546034
8 -0.000359059461460
9 0.001208367391328
10 0.000320694168752
11 -0.000097744760587
12 -0.000222949408164
13 -0.000000002015750
14 -0.000000000454972
15 0.000102686919595
16 1.00097977294125
17 0.008055500628938
18 -0.009165142720804
19 -0.000000002449049
20 0.000015487000785
21 0.000077645328389
22 0.000000003058156
23 0.000014737910491
24 0.000554308804820
25 -0.000744986708292
26 0.000290329552189
27 0.000454657156104
28 0.000000005330128
29 0.000000001605700
30 -0.000059157210238
31 -0.000546646620974
32 0.001456108679768
33 0.000000002301689
34 0.000447474599539
35 0.000278722438302
36 -0.000562632344798
37 0.001541023998663
38 -0.000000002040369
39 -0.000503302497394
40 0.000144626912947
41 -0.000020735524710
42 0.000028492225818
43 0.000000000181353
44 -0.000010868640745
45 -0.000036501096387
46 0.000171095395273
47 0.000183604361060
48 -0.000000000501432
49 -0.000121655509894
50 0.000089135363398
 Sym=      3.1
 Ene=      -1.0268
 Spin= Alpha
 Occup=    2.000000
1 -0.016566654972321
2 0.56657649425338
3 -0.12718900855452
4 0.000000447315881
5 0.022795006368180
6 0.23571008330427
7 -0.000000125754966
8 -0.008937389462514
9 -0.061519945880865
10 -0.010071818462480
11 -0.012264724108903
12 0.022336542571383
13 -0.000000013344659
14 0.000000037755561
15 -0.006540202785174
16 -0.022899291650533
17 0.65606008908571
18 -0.18998571980412
19 -0.000000126311927
20 0.034716423212655
21 -0.17427165647062
22 0.000000097781010
23 -0.005837367055327
24 0.072650695459488
25 -0.006833683582892
26 -0.010379965038105
27 0.017213648620997
28 -0.000000025374907
29 0.000000020872735
30 -0.006779673271516
31 0.21110212413279
32 -0.10590952933128
33 -0.000000090205132
34 -0.014914745494680
35 -0.014457634673596
36 0.21130703709057
37 -0.095310322908141
38 0.000000069012591
39 0.017385072098166
40 -0.010108601645759
41 -0.003015574683178
42 -0.009715967698408
43 -0.000000000496445
44 0.000214512265314
45 -0.000361584899264
46 0.17218907968757
47 -0.073770607092652
48 -0.000000036758668
49 -0.010349082172194
50 0.011567568012005
 Sym=      4.1
 Ene=      -0.7682
 Spin= Alpha
 Occup=    2.000000
1 -0.009669983074960
2 0.51727062142141
3 -0.097711399736861
4 0.000000798934474
5 0.22851505651286
6 -0.14408860753082
7 -0.000000203023132
8 -0.056495416361605
9 0.034316673953875
10 -0.003044249650337
11 0.007751668572551
12 -0.004707418922214
13 0.000000048777408
14 -0.000000027300649
15 -0.005830789935230
16 0.010589045476746
17 -0.38904760561694
18 0.062916584760427
19 0.000000103260101
20 0.10386690354705
21 -0.28329029485727
22 -0.000000004554265
23 -0.020552757369275
24 0.062737567197932
25 0.001362514566216
26 -0.011756388120825
27 0.010393873554608
28 -0.000000075537492
29 -0.000000014701923
30 -0.008791251419288
31 -0.28086954954888
32 0.099126437857359
33 0.000000086537256
34 0.016280297899055
35 0.007396161937444
36 -0.35508735276595
37 0.14301195058192
38 -0.000000097578494
39 -0.022187758451690
40 0.004712364758774
41 -0.003781742696122
42 -0.013386321246933
43 -0.000000004036430
44 0.000712596207029
45 0.000218799286369
46 0.48679404954393
47 -0.18235846284123
48 -0.000000093978203
49 -0.022801785549451
50 0.017133597409867
 Sym=      5.1
 Ene=      -0.6205
 Spin= Alpha
 Occup=    2.000000
1 -0.002331409376273
2 -0.11202393541393
3 0.055280962621220
4 0.000000791745956
5 0.29587270267972
6 -0.41204596029601
7 -0.000000196572940
8 -0.076280979555841
9 0.11054598799528
10 -0.000605558927813
11 0.011867063619216
12 -0.011261504691402
13 0.000000073721240
14 0.000000000065103
15 0.005018357955684
16 -0.002897724417046
17 0.010880072847347
18 0.021649624225742
19 0.000002039567758
20 0.27675658154128
21 0.52408456644576
22 -0.000000438134669
23 -0.055808684220869
24 -0.11836284569878
25 -0.001595719416592
26 0.015747189294737
27 -0.014151469878146
28 0.000000091544165
29 -0.000000007866415
30 0.009119280127503
31 0.52815052151223
32 -0.15723798170463
33 -0.000000100696307
34 -0.019502139480408
35 -0.009293096308961
36 -0.026565009551355
37 0.011954544774680
38 0.000000025462130
39 0.002765872607733
40 0.009442274153382
41 0.009652688810832
42 0.009672049065675
43 -0.000000000461466
44 0.000640265621321
45 -0.000266953283143
46 0.36708366542471
47 -0.11474803399486
48 -0.000000062250854
49 -0.013739934371989
50 0.005003682664129
 Sym=      6.1
 Ene=      -0.5790
 Spin= Alpha
 Occup=    2.000000
1 0.002364309087992
2 -0.037138135615846
3 -0.027300245822534
4 0.000000155151891
5 -0.10637634753464
6 0.32851734721211
7 -0.000000070466235
8 0.020458010850423
9 -0.093027933369532
10 0.002327209022589
11 -0.014878242210375
12 0.012551033187786
13 -0.000000048395459
14 0.000000147475921
15 0.026505571827229
16 0.000651666921675
17 0.027971752556622
18 -0.010594001331208
19 0.000002268050070
20 0.57235133531893
21 -0.21095680928763
22 -0.000000486830507
23 -0.11791184799558
24 0.038794605632518
25 -0.000376928954999
26 -0.013221128782916
27 0.013598057737915
28 -0.000000049432636
29 0.000000113284861
30 0.020651142229238
31 0.34307740158998
32 -0.086177832127951
33 -0.000000036946472
34 -0.003292468849651
35 -0.015318367786404
36 -0.59647988795736
37 0.16646021662132
38 -0.000000077036672
39 -0.018818530646896
40 0.009662064751566
41 0.015354233937523
42 0.017495901206809
43 0.000000000897534
44 -0.000396400644496
45 0.000117483092137
46 -0.31751244923604
47 0.077264045965272
48 0.000000043146685
49 0.008256629288896
50 -0.004050235311717
 Sym=      7.1
 Ene=      -0.3873
 Spin= Alpha
 Occup=    2.000000
1 -0.000000001629954
2 -0.000000498421216
3 -0.000000116719532
4 0.58530001481460
5 -0.000001904662418
6 -0.000000451223775
7 0.006432600403605
8 0.000000005887548
9 0.000000072597471
10 0.000000069916789
11 0.000000012607992
12 -0.000000082524781
13 -0.000034172771777
14 0.035588919614325
15 -0.000000139283971
16 0.000000021195269
17 0.000000353996446
18 -0.000000153113468
19 0.58073349130743
20 -0.000002748516965
21 -0.000001166878053
22 0.022077220440355
23 -0.000000061676194
24 0.000000111350556
25 -0.000000061662327
26 -0.000000021285484
27 0.000000082947811
28 0.006020364085037
29 -0.032975361755552
30 0.000000074567081
31 -0.000000359598986
32 -0.000000048854634
33 0.013409738455569
34 -0.000000054221716
35 -0.000000025469470
36 0.000000260725155
37 -0.000000021811398
38 0.013255263937126
39 -0.000000065886351
40 -0.000000025469291
41 0.000000522329960
42 -0.000000198564587
43 0.002248041337657
44 0.000000012627933
45 0.000000027066852
46 0.000000307526497
47 -0.000000048319998
48 0.014170285285570
49 -0.000000061010623
50 0.000000003417132
 Sym=      8.1
 Ene=      -0.3348
 Spin= Alpha
 Occup=    1.747808
1 -0.003607905583920
2 0.19182728328665
3 0.070295617676361
4 -0.000002091020398
5 -0.44073853647234
6 -0.29134768959731
7 -0.000000139165226
8 -0.019679622368617
9 -0.004936186065562
10 -0.003418653998706
11 0.005906953001305
12 -0.002488299002599
13 -0.000000045944142
14 -0.000000023331183
15 0.022288860724740
16 -0.001251799484943
17 -0.083579167225257
18 0.019656614819485
19 -0.000000191226327
20 0.020101403021542
21 0.094051035252775
22 -0.000000002707533
23 0.042213461277079
24 -0.019678445001962
25 0.000903295478304
26 -0.005543998186184
27 0.004640702707880
28 0.000000001228558
29 0.000000111762892
30 0.024876993946017
31 0.10796070540364
32 0.010597553110387
33 -0.000000011340172
34 0.000010732490015
35 0.000622752952555
36 -0.077427130833760
37 0.016524518706844
38 0.000000002630517
39 0.000889264448888
40 0.002098670842384
41 0.62078991166732
42 0.023183467987947
43 -0.000000033499950
44 0.005630692839583
45 0.003830383901561
46 -0.14730361556888
47 0.021960445584702
48 -0.000000029234259
49 -0.005365892710823
50 -0.008082453226300
 Sym=      9.1
 Ene=       0.0661
 Spin= Alpha
 Occup=    0.252192
1 -0.006923556004224
2 -0.33992445997313
3 -0.10897879122314
4 0.000002121277031
5 0.60464290559564
6 0.41045945160929
7 -0.000000204029501
8 0.014668705764358
9 -0.021536627380537
10 0.008998724337986
11 -0.012167066991251
12 0.003168342653265
13 -0.000000106858128
14 -0.000000176702914
15 -0.036023015165580
16 0.000643107057802
17 0.078322299254508
18 0.002464371474541
19 -0.000001237121424
20 -0.029325130193484
21 -0.10881802054429
22 -0.000000275045210
23 -0.058480810133705
24 0.012374562173322
25 -0.002246180253790
26 0.008130878017758
27 -0.005884697763968
28 0.000000004245349
29 -0.000000085080278
30 -0.030300134942981
31 -0.13013286815653
32 0.002092172017937
33 -0.000000017764912
34 -0.000128355081811
35 0.001477802968011
36 0.079849718558768
37 -0.024512269590875
38 -0.000000041070997
39 -0.002231554672427
40 -0.003056552485421
41 0.92543742309409
42 -0.11145992769663
43 0.000000025312022
44 -0.003955831809905
45 -0.002927961238692
46 0.14390490522950
47 -0.035933913024726
48 0.000000019557925
49 0.008196142396641
50 0.009553191620671
 Sym=     10.1
 Ene=       0.1606
 Spin= Alpha
 Occup=    0.000000
1 -0.000000023579738
2 0.000000200713979
3 0.000001500661142
4 0.54216558856085
5 -0.000002535681493
6 -0.000000913093197
7 0.48419308164607
8 -0.000002049911448
9 -0.000000547944507
10 -0.000000011148836
11 -0.000000081093922
12 0.000000092242757
13 0.011760497937614
14 -0.020688782062689
15 0.000000021014135
16 -0.000000012203826
17 0.000000205906588
18 0.000000355065964
19 -0.51610454317359
20 0.000002070064449
21 0.000000838447266
22 -0.50059333970504
23 0.000001580529937
24 0.000001743299266
25 -0.000000047914066
26 -0.000000012460731
27 0.000000060374797
28 0.003035656412231
29 -0.026816845247310
30 0.000000129844601
31 0.000000012498558
32 -0.000000318958735
33 -0.018347712978846
34 0.000000092826678
35 0.000000030718184
36 0.000000112166057
37 -0.000001796415439
38 -0.018766871027480
39 0.000000068093093
40 0.000000036057327
41 -0.000000160371418
42 -0.000002247032258
43 0.009180494540755
44 0.000000103098054
45 0.000000028127622
46 0.000000430222447
47 -0.000000924752355
48 0.023018217734026
49 -0.000000090587531
50 -0.000000062425128
 Sym=     11.1
 Ene=       0.2072
 Spin= Alpha
 Occup=    0.000000
1 -0.022099275469724
2 0.057949846936211
3 0.68361764808065
4 -0.000000148034374
5 0.14857758168585
6 -0.12818306062255
7 0.000000677846929
8 0.26419934734526
9 -0.32850163532335
10 -0.004930849784494
11 0.004447015315386
12 0.000483834469108
13 0.000000005760033
14 -0.000000043916304
15 -0.010601885742515
16 -0.058468918242398
17 0.14168369037897
18 1.67626513468867
19 0.000001077400615
20 0.080076811868288
21 0.24539118065595
22 0.000001261677209
23 0.085406525601523
24 0.46193121994545
25 -0.020980675106434
26 0.018119041522261
27 0.002861633584174
28 0.000000183619821
29 0.000000052106124
30 -0.005337743187510
31 -0.039223853497283
32 -1.48079550596434
33 0.000000099209145
34 0.013500368454147
35 0.014378757140937
36 -0.029879180957185
37 -0.82449103585590
38 -0.000000031250280
39 -0.013646111706642
40 0.008140377460030
41 0.061531144501939
42 -0.010480791613410
43 0.000000014703484
44 0.000601277583499
45 -0.007343794442438
46 0.010504151351477
47 -1.01168885932634
48 -0.000000018556515
49 0.007751008329315
50 -0.012245253746807
 Sym=     12.1
 Ene=       0.2220
 Spin= Alpha
 Occup=    0.000000
1 -0.037297440593763
2 0.15030871159596
3 1.02094808473453
4 0.000001148430885
5 0.24146862239960
6 -0.086740694800390
7 0.000001769649293
8 0.45033735522694
9 -0.32985516132817
10 -0.010704202758105
11 0.018223073822492
12 -0.007518871064387
13 0.000000152345001
14 -0.000000026458011
15 -0.005387556473254
16 0.031820592980439
17 -0.16841493191078
18 -0.86847555443476
19 0.000000779644807
20 0.19713944167132
21 -0.031756702225485
22 0.000001042215836
23 0.32865673682205
24 -0.23315239633873
25 0.011713235358488
26 -0.010795133637420
27 -0.000918101721068
28 -0.000000150882044
29 -0.000000091074793
30 -0.012349943152254
31 -0.008725591477353
32 0.12228363764664
33 -0.000000033473925
34 -0.006459820027632
35 -0.000693328567227
36 0.066708245145438
37 1.38202913999002
38 0.000000068704815
39 0.016313370970557
40 -0.001656185464802
41 0.001029445509597
42 0.023812262598319
43 -0.000000020376205
44 -0.001233942244861
45 0.005959235081639
46 -0.089771742298812
47 -1.63503240977494
48 0.000000096280257
49 0.020051015097840
50 -0.007723532624484
 Sym=     13.1
 Ene=       0.2743
 Spin= Alpha
 Occup=    0.000000
1 -0.028138742621889
2 0.041397469782946
3 0.84484585675629
4 -0.000000210481237
5 0.13810488233661
6 -0.044624997406060
7 0.000003351941548
8 0.81203433670207
9 -0.16770817029360
10 -0.018391169024019
11 0.021945274718957
12 -0.003554105694939
13 0.000000125470507
14 -0.000000092860559
15 -0.020694846791145
16 0.006940781150123
17 -0.006254160705948
18 -0.057561411225397
19 -0.000001592725113
20 -0.39643428852108
21 -0.040003125283880
22 -0.000006374753236
23 -1.43721914490183
24 -0.14553598638076
25 0.003309325355727
26 0.003955643402102
27 -0.007264968757830
28 -0.000000060078125
29 -0.000000121854810
30 -0.033881870229177
31 -0.022530475465159
32 1.90170221894639
33 -0.000000101979367
34 -0.018253786966102
35 -0.019840883003874
36 0.036473226394926
37 -1.79374446498830
38 -0.000000035068287
39 -0.018077717702603
40 0.015367753282254
41 0.070640904324730
42 0.12137273224303
43 0.000000046370924
44 0.001020114129856
45 0.001641949840900
46 0.054258690457570
47 -1.33157243807830
48 0.000000018267807
49 0.017610601387645
50 -0.012408592318393
 Sym=     14.1
 Ene=       0.4567
 Spin= Alpha
 Occup=    0.000000
1 -0.058385804782770
2 0.10972045934195
3 3.79017425168474
4 -0.000001351657894
5 -0.10616937102841
6 0.27127642863673
7 0.000002455915620
8 -0.70443675347615
9 2.80322360297001
10 -0.034939325479131
11 -0.027852873273426
12 0.062792198752557
13 -0.000000099335548
14 0.000000033286857
15 -0.015332498351883
16 0.079117883409695
17 0.059300402092313
18 -3.57073734473663
19 -0.000000118193299
20 -0.016243486163231
21 0.10524982411766
22 0.000004621720286
23 -0.32300562796462
24 3.36022752825331
25 0.056597391409901
26 -0.025407513913600
27 -0.031189877496301
28 -0.000000437952645
29 0.000000009332163
30 0.011751231112070
31 -0.28040577915446
32 -0.55079252836765
33 -0.000000061595734
34 -0.016873167384252
35 0.004410357302504
36 -0.26314795425847
37 -0.37696782371374
38 0.000000125639889
39 0.022604021783814
40 0.004698086668885
41 0.17991006183271
42 -0.058200723265789
43 0.000000071303535
44 -0.007716051888011
45 0.011676292095637
46 -0.059742557861099
47 1.06841560834239
48 0.000000026605967
49 0.018868040796427
50 0.002965842681775
 Sym=     15.1
 Ene=       0.5813
 Spin= Alpha
 Occup=    0.000000
1 0.13566975356607
2 0.43273210578147
3 -0.93790170183424
4 0.000001305030361
5 0.029137095160894
6 0.54512370239273
7 -0.000002108619263
8 -0.057046408627952
9 -1.86365685273215
10 -0.061503652870933
11 0.002148134156047
12 0.059355518714886
13 0.000000141997104
14 -0.000000056475942
15 -0.079497117314641
16 0.095744561380006
17 0.48310145621148
18 0.69556019667517
19 0.000000935725392
20 0.094592209208697
21 -0.71903467807962
22 -0.000001138443113
23 0.056376284842610
24 0.44013988461935
25 -0.029629483860105
26 -0.002803323205776
27 0.032432807065881
28 0.000000239156435
29 0.000000072083597
30 -0.013535905352613
31 -0.057264144354609
32 0.13209830112479
33 0.000000179008960
34 0.005218507494719
35 0.039970230118236
36 -0.27073329495525
37 0.37781536910131
38 -0.000000070761021
39 -0.023596043083641
40 0.014289516645036
41 0.67310576499448
42 -1.03219934249590
43 -0.000000188865908
44 0.016796029666044
45 -0.034263013340167
46 0.33671232367282
47 -0.65680489032150
48 0.000000031901052
49 0.039604076876460
50 -0.067540068570194
 Sym=     16.1
 Ene=       0.6186
 Spin= Alpha
 Occup=    0.000000
1 -0.064953292734663
2 -0.16162992735261
3 -0.077572625706075
4 0.000001690526911
5 -0.007526402103525
6 0.10437429685115
7 -0.000001459466337
8 0.11861600191136
9 -0.96314873809320