[Molden Format]
[Molpro variables]
_NUMVAR=  709.0000000000000    
_EV2006= 0.3674930886769165E-01
_EV= 0.3674932534394180E-01
_KJOULE= 0.3808798324128737E-03
_KJOULE/MOL= 0.3808798324128737E-03
_CM= 0.4556335267302901E-05
_CM-1= 0.4556335267302901E-05
_KCAL= 0.1593601117815568E-02
_KCAL/MOL= 0.1593601117815568E-02
_KELVIN2006= 0.3166828861084835E-05
_KELVIN= 0.3166814820820034E-05
_HERTZ2006= 0.1519829850815779E-15
_HERTZ= 0.1519829846011223E-15
_HZ2006= 0.1519829850815779E-15
_HZ= 0.1519829846011223E-15
_TOA2006= 0.5291772490000000    
_TOA= 0.5291772090000000    
_TOANG2006= 0.5291772490000000    
_TOANG= 0.5291772090000000    
_TORAD= 0.1745329251994330E-01
_TOCM=  219474.6306700000    
_TODEBYE=  2.541580000000000    
_TOEV2006=  27.21139610000000    
_TOEV=  27.21138390000000    
_TOHERTZ2006=  6579683899900000.    
_TOHERTZ=  6579683920700000.    
_TOHZ2006=  6579683899900000.    
_TOHZ=  6579683920700000.    
_TOK2006=  315773.3000000000    
_TOK=  315774.7000000000    
_TOKCAL=  627.5096000000000    
_TOKELVIN2006=  315773.3000000000    
_TOKELVIN=  315774.7000000000    
_TOKJ=  2625.500000000000    
_TOKJOULE=  2625.500000000000    
_ANG2006=  1.889725988578923    
_ANG=  1.889726131421507    
_ANGSTROM2006=  1.889725988578923    
_ANGSTROM=  1.889726131421507    
_IGNORE_UNDEF=  2.000000000000000    
_STRICTCHECK=  0.000000000000000    
_SEW_ONEEL=  0.000000000000000    
_CPPDONE=FALSE
_DKROLL_DONE=  0.000000000000000    
_FOCKDONE=  0.000000000000000    
_GRADONE=FALSE
_HESSDONE=TRUE
_INTDONE=TRUE
_SCFDONE=FALSE
_MODUL_CUDA=FALSE
_MODUL_SLATER=FALSE
_MODUL_MRCC=FALSE
_MRCC_EXEC=
_FITC_AO_SAVED=FALSE
_FITC_MO_SAVED=FALSE
_SHARED_FS=TRUE
_LSTYP=SEWARD
_INTYP=INTS
_GEOMTYP=ZMAT
_GRADTYP=ALASKA
_DIRECT=FALSE
_SYNCM=  0.000000000000000    
_BASIS=CC-PVDZ
_ZORIENT=  1.000000000000000    
_NELEC=  16.00000000000000    
_SPIN=  0.000000000000000    
!SPIN=  0.000000000000000    
_OPTCONV= 0.4647594381994894E-03
_QSDSTEP=  0.000000000000000    
_QSDIRC=  0.000000000000000    
_PROGRAM=FREQ
_CPUSTEP=  0.000000000000000    
_SYSSTEP=  0.000000000000000    
_WALLSTEP= 0.2000000000000000    
!DFMP2=  0.000000000000000    
!DFSCF=  0.000000000000000    
!SCSGRD=  0.000000000000000    
_BASINP=  610.0000000000000    
_CPUTOT=  122.2200000000000    
_DFTEXFAC=  1.000000000000000    
_DMX= 0.1822570702491707E-05
_DMY= 0.2530311312480671    
_DMZ= 0.2678146596496287    
_FREQUENCIES= -639.0823981467742    
_EMP2= -78.15244507155033    
_ENERGR= -77.92647862761308    
_ENERGU= -78.20024844699388    
_ENERGY= -78.15244507155033    
_ENUC=  30.47134733145807    
_FREQSTEP=  37.00000000000000    
!RS2GRSTATE=  1.000000000000000    
!RS2GRSYM=  1.000000000000000    
_GRADENERG= -78.15243970587221    
_GRADEXFAC=  9999.000000000000    
_GRADMETHOD=TRUE
_GRADRECORD=  5200.100000000000    
_VIRIAL= 0.6299843798028702E-01
!GRID_FREEZE= -1.000000000000000    
_ITERATIONS=  0.000000000000000    
_LASTNELEC=  4.000000000000000    
_LASTSPIN=  0.000000000000000    
_LASTSYM=  1.000000000000000    
_MPP_PROG=  1.000000000000000    
_MSENERGY= -78.15244507155033    
_NPROC_MPP=  4.000000000000000    
_NPROC_SMP=  1.000000000000000    
_NUMSTEP=  0.000000000000000    
_OPTCONVMX= 0.2376743632950270E-03
_OPTCONVRMS= 0.4225085801813540E-04
_OPTGRAD= 0.3612083727005250E-04
_OPTGRADMX= 0.2188552262235406E-04
_OPTGRADRMS= 0.3283712479095682E-05
_OPTSTEP=  9.000000000000000    
_ORBITAL=  2143.200000000000    
_PI=  3.141592653589793    
!MCACT=  4.000000000000000    
!MCCLOSED=  6.000000000000000    
!MCFREEZE=  0.000000000000000    
!MCMS2=  0.000000000000000    
!MCNEL=  4.000000000000000    
!MCNSTSYM=  1.000000000000000    
!MCSTATE=  1.000000000000000    
!MCSYM=  1.000000000000000    
!MCWEIGHT=  1.000000000000000    
_SEIG_MIN= 0.4114326911300005E-02
_SEWPROP=TRUE
_STATUS=  1.000000000000000    
_SYSTOT=  7.630000000000000    
_VERSION=  2010001.000000000    
_WALLTOT=  391.7000000000000    
_ZPE= 0.3819917681490683E-01
_DATE=05-Sep-19
_LASTORB=MCSCF
_MACHINE=Linux-2.6.34-12-desktop/tt105(x86_64) 64 bit mpp version
_OUTPUT=/home/carlo/qm/combustion/barrierless/c2h4_c2h3_h/dist_2.8/molpro.xml
_PGROUP=C1
_TIME=22:08:22
_LIBMOL=/programs/molpro2010p/bin/../lib/
!SURFREC=  0.000000000000000    
!POLYREC=  0.000000000000000    
!DIPREC=  0.000000000000000    
!VSCFREC=  0.000000000000000    
!VCIREC=  0.000000000000000    
!PVCIREC=  0.000000000000000    
!VMP2REC=  0.000000000000000    
!VMCSCFREC=  0.000000000000000    
!GAREC=  0.000000000000000    
!SCFORB=  21002.00000000000    
!MCORB=  21432.00000000000    
!CIOCC=  10.00000000000000    
!CICORE=  2.000000000000000    
!CICLOS=  6.000000000000000    
!CIISTSYM=  1.000000000000000    
!CIISTMS2=  0.000000000000000    
!CIISTNEL=  12.00000000000000    
!NEWMOL=  0.000000000000000    
!NEWSYM=  0.000000000000000    
_SLFILES=slscratch
_NGSSTO=  9.000000000000000    
_SIN=SIN
_COS=COS
_TAN=TAN
_ACOS=ACOS
_ASIN=ASIN
_ATAN=ATAN
_COSH=COSH
_SINH=SINH
_TANH=TANH
_ABS=ABS
_MOD=MOD
_ERF=ERF
_REFC=REFC
_ERFC=ERFC
_HYPOT=HYPOT
_J0=J0
_J1=J1
_JN=JN
_GAMMA=GAMMA
_LGAMMA=LGAMMA
_Y0=Y0
_Y1=Y1
_YN=YN
_EXP=EXP
_LOG=LOG
_LOG10=LOG10
_SQRT=SQRT
_INT=INT
_NINT=NINT
_MAX=MAX
_MIN=MIN
_COSMO=  0.000000000000000    
_COSMOIT=  0.000000000000000    
_COSMOES=  0.000000000000000    
_COSMOEDS=  0.000000000000000    
_COSMOEC=  0.000000000000000    
_COSMOEDCORR=  0.000000000000000    
_FEPSI=  1.000000000000000    
_SL_IsMM=  0.000000000000000    
_SL_NSYM=  0.000000000000000    
_SL_System_BitSw=  0.000000000000000    
_SL_Unique_atoms=  0.000000000000000    
_SL_GRAD=  0.000000000000000    
_SL_MAXUPD_Hess=  5.000000000000000    
_SL_N_PRINT_COD=  5.000000000000000    
_SL_PRINT_CODES=  0.000000000000000    
_SL_BasType=  0.000000000000000    
_SL_Energy_Pred=  0.000000000000000    
_SL_New_Coords=  0.000000000000000    
_SL_Total_Nuclea=  0.000000000000000    
_SL_Highest_Mltp=  0.000000000000000    
_SL_Ref_Geom=  0.000000000000000    
!LATTICE= -1.000000000000000    
!NEWLATTICE=  0.000000000000000    
!LATGRAD_VAR=FALSE
!SEW_LATTICE=  1.000000000000000    
!LOCAL=  0.000000000000000    
!SAVEDOM= -1.000000000000000    
!RESTDOM= -1.000000000000000    
!SAVEDOM_HF= -1.000000000000000    
!RESTDOM_HF= -1.000000000000000    
!HESSREC=  5300.200000000000    
!FREQREC=  5400.200000000000    
!NMODREC=  5450.200000000000    
!GTASKS=  0.000000000000000    
!HTASKS=  5500.200000000000    
!THRCHG= 0.1000000000000000    
!DEBUG= -1.000000000000000    
!CFIT_CPHF=  0.000000000000000    
!RDOMAUX_CPHF=  3.000000000000000    
!THRAO_CPHF= 0.1000000000000000E-09
!THRMO_CPHF= 0.1000000000000000E-09
!THROV_CPHF= 0.1000000000000000E-11
!THRSW_CPHF= 0.1000000000000000E-09
!THRPROD_CPHF= 0.1000000000000000E-09
!THRAOPR_CPHF= 0.1000000000000000E-11
!CFIT_SCFGRD=  0.000000000000000    
!RDOMAUX_SCFGRD=  5.000000000000000    
!THRAO_SCFGRD= 0.1000000000000000E-09
!THRMO_SCFGRD= 0.1000000000000000E-09
!THROV_SCFGRD= 0.1000000000000000E-11
!THRSW_SCFGRD= 0.1000000000000000E-09
!THRPROD_SCFGRD= 0.1000000000000000E-09
!THRAOPR_SCFGRD= 0.1000000000000000E-11
!LOCFIT_SCF=  0.000000000000000    
!LOCFIT_MP2= -1.000000000000000    
_RIDOM=  0.000000000000000    
!CC2_METHOD=  0.000000000000000    
_BASIS2006=FALSE
_SVDDEL= -1.000000000000000    
_SVDDELA= -1.000000000000000    
_SVDDELP= -1.000000000000000    
_SVDDELF= -1.000000000000000    
_SVDDELS= -1.000000000000000    
_SVDDEL_ABS= -1.000000000000000    
_SVDDELA_ABS= -1.000000000000000    
_SVDDELP_ABS= -1.000000000000000    
_SVDDELF_ABS= -1.000000000000000    
_SVDDELS_ABS= -1.000000000000000    
_MAXBASIS=  0.000000000000000    
!OPT_CONICAL=  0.000000000000000    
!CLEARSP_JGRID=  0.000000000000000    
RCC1=  1.333022413358792    
RCC2=  1.099594924905488    
RCC3=  1.094143578136230    
RCH2=  1.091151582237571    
ACCC1=  120.6535864159984    
AHCC1=  121.9780765527396    
AHCC2=  118.5208660497617    
AHCC3=  136.0614828681026    
B1=  180.0002881514330    
B2=  180.0001762230930    
B3=  180.0000442737698    
RCH1=  2.800000000000000    
GX1= 0.4088675858387915E-06
GY1= 0.4522310151639326    
GZ1= -1.109673577211058    
GX2=-0.8815310221907935E-06
GY2=-0.2713619114784244    
GZ2=  1.303211110704264    
GX3=-0.4567016853454803E-05
GY3=  1.136558275228736    
GZ3=  2.831467435968260    
GX4= 0.1046162476190430E-04
GY4= -2.265856386721522    
GZ4=  1.848273199801330    
GX5=-0.4422341004715629E-05
GY5= -3.275223966795625    
GZ5= -4.865100023751520    
GX6= 0.4160172064879239E-05
GY6=  2.249216400999443    
GZ6= -2.120908162454492    
C1X1= 0.4088675858385932E-06
C1Y1= 0.4522310151639326    
C1Z1= -1.109673577211058    
C2X2=-0.8815310221909484E-06
C2Y2=-0.2713619114784244    
C2Z2=  1.303211110704264    
H3X3=-0.4567016853454856E-05
H3Y3=  1.136558275228736    
H3Z3=  2.831467435968260    
H4X4= 0.1046162476190347E-04
H4Y4= -2.265856386721522    
H4Z4=  1.848273199801330    
H5X5=-0.4422341004716238E-05
H5Y5= -3.275223966795625    
H5Z5= -4.865100023751520    
H6X6= 0.4160172064879286E-05
H6Y6=  2.249216400999443    
H6Z6= -2.120908162454492    
CBSEN= -78.15244507155033    
[Atoms] Angs
C     1    6         0.0000002164        0.2393103464       -0.5872139665
C     2    6        -0.0000004665       -0.1435985389        0.6896296183
H     3    1        -0.0000024168        0.6014407360        1.4983480351
H     4    1         0.0000055361       -1.1990395587        0.9780640533
H     5    1        -0.0000023402       -1.7331738776       -2.5745000521
H     6    1         0.0000022015        1.1902340575       -1.1223362620
[GTO]
  1 0
 s    9  1.00
  0.6665000000D+04  0.6920001793D-03
  0.1000000000D+04  0.5329001381D-02
  0.2280000000D+03  0.2707700701D-01
  0.6471000000D+02  0.1017180264D+00
  0.2106000000D+02  0.2747400712D+00
  0.7495000000D+01  0.4485641162D+00
  0.2797000000D+01  0.2850740738D+00
  0.5215000000D+00  0.1520400394D-01
  0.1596000000D+00 -0.3191000827D-02
 s    9  1.00
  0.6665000000D+04 -0.1460000642D-03
  0.1000000000D+04 -0.1154000508D-02
  0.2280000000D+03 -0.5725002519D-02
  0.6471000000D+02 -0.2331201026D-01
  0.2106000000D+02 -0.6395502813D-01
  0.7495000000D+01 -0.1499810660D+00
  0.2797000000D+01 -0.1272620560D+00
  0.5215000000D+00  0.5445292395D+00
  0.1596000000D+00  0.5804962554D+00
 s    9  1.00
  0.6665000000D+04  0.0000000000D+00
  0.1000000000D+04  0.0000000000D+00
  0.2280000000D+03  0.0000000000D+00
  0.6471000000D+02  0.0000000000D+00
  0.2106000000D+02  0.0000000000D+00
  0.7495000000D+01  0.0000000000D+00
  0.2797000000D+01  0.0000000000D+00
  0.5215000000D+00  0.0000000000D+00
  0.1596000000D+00  0.1000000000D+01
 p    4  1.00
  0.9439000000D+01  0.3810902127D-01
  0.2002000000D+01  0.2094801169D+00
  0.5456000000D+00  0.5085572839D+00
  0.1517000000D+00  0.4688422617D+00
 p    4  1.00
  0.9439000000D+01  0.0000000000D+00
  0.2002000000D+01  0.0000000000D+00
  0.5456000000D+00  0.0000000000D+00
  0.1517000000D+00  0.1000000000D+01
 d    1  1.00
  0.5500000000D+00  0.1000000000D+01
  
  2 0
 s    9  1.00
  0.6665000000D+04  0.6920001793D-03
  0.1000000000D+04  0.5329001381D-02
  0.2280000000D+03  0.2707700701D-01
  0.6471000000D+02  0.1017180264D+00
  0.2106000000D+02  0.2747400712D+00
  0.7495000000D+01  0.4485641162D+00
  0.2797000000D+01  0.2850740738D+00
  0.5215000000D+00  0.1520400394D-01
  0.1596000000D+00 -0.3191000827D-02
 s    9  1.00
  0.6665000000D+04 -0.1460000642D-03
  0.1000000000D+04 -0.1154000508D-02
  0.2280000000D+03 -0.5725002519D-02
  0.6471000000D+02 -0.2331201026D-01
  0.2106000000D+02 -0.6395502813D-01
  0.7495000000D+01 -0.1499810660D+00
  0.2797000000D+01 -0.1272620560D+00
  0.5215000000D+00  0.5445292395D+00
  0.1596000000D+00  0.5804962554D+00
 s    9  1.00
  0.6665000000D+04  0.0000000000D+00
  0.1000000000D+04  0.0000000000D+00
  0.2280000000D+03  0.0000000000D+00
  0.6471000000D+02  0.0000000000D+00
  0.2106000000D+02  0.0000000000D+00
  0.7495000000D+01  0.0000000000D+00
  0.2797000000D+01  0.0000000000D+00
  0.5215000000D+00  0.0000000000D+00
  0.1596000000D+00  0.1000000000D+01
 p    4  1.00
  0.9439000000D+01  0.3810902127D-01
  0.2002000000D+01  0.2094801169D+00
  0.5456000000D+00  0.5085572839D+00
  0.1517000000D+00  0.4688422617D+00
 p    4  1.00
  0.9439000000D+01  0.0000000000D+00
  0.2002000000D+01  0.0000000000D+00
  0.5456000000D+00  0.0000000000D+00
  0.1517000000D+00  0.1000000000D+01
 d    1  1.00
  0.5500000000D+00  0.1000000000D+01
  
  3 0
 s    4  1.00
  0.1301000000D+02  0.1968498999D-01
  0.1962000000D+01  0.1379769298D+00
  0.4446000000D+00  0.4781477569D+00
  0.1220000000D+00  0.5012397451D+00
 s    4  1.00
  0.1301000000D+02  0.0000000000D+00
  0.1962000000D+01  0.0000000000D+00
  0.4446000000D+00  0.0000000000D+00
  0.1220000000D+00  0.1000000000D+01
 p    1  1.00
  0.7270000000D+00  0.1000000000D+01
  
  4 0
 s    4  1.00
  0.1301000000D+02  0.1968498999D-01
  0.1962000000D+01  0.1379769298D+00
  0.4446000000D+00  0.4781477569D+00
  0.1220000000D+00  0.5012397451D+00
 s    4  1.00
  0.1301000000D+02  0.0000000000D+00
  0.1962000000D+01  0.0000000000D+00
  0.4446000000D+00  0.0000000000D+00
  0.1220000000D+00  0.1000000000D+01
 p    1  1.00
  0.7270000000D+00  0.1000000000D+01
  
  5 0
 s    4  1.00
  0.1301000000D+02  0.1968498999D-01
  0.1962000000D+01  0.1379769298D+00
  0.4446000000D+00  0.4781477569D+00
  0.1220000000D+00  0.5012397451D+00
 s    4  1.00
  0.1301000000D+02  0.0000000000D+00
  0.1962000000D+01  0.0000000000D+00
  0.4446000000D+00  0.0000000000D+00
  0.1220000000D+00  0.1000000000D+01
 p    1  1.00
  0.7270000000D+00  0.1000000000D+01
  
  6 0
 s    4  1.00
  0.1301000000D+02  0.1968498999D-01
  0.1962000000D+01  0.1379769298D+00
  0.4446000000D+00  0.4781477569D+00
  0.1220000000D+00  0.5012397451D+00
 s    4  1.00
  0.1301000000D+02  0.0000000000D+00
  0.1962000000D+01  0.0000000000D+00
  0.4446000000D+00  0.0000000000D+00
  0.1220000000D+00  0.1000000000D+01
 p    1  1.00
  0.7270000000D+00  0.1000000000D+01
 
 
[MO]
 Sym=      1.1
 Ene=     -11.2525
 Spin= Alpha
 Occup=    2.000000
1 0.99866450671193
2 0.006526455826602
3 -0.007234899556856
4 0.000000015073966
5 0.001252820694166
6 0.000586562267741
7 -0.000000001131805
8 -0.000851348009694
9 -0.000867862977001
10 -0.000654116225769
11 0.000234041127673
12 0.000420075098096
13 0.000000002203712
14 -0.000000000773407
15 -0.001210051780569
16 0.069063861106549
17 -0.000794704923426
18 0.001884062080235
19 0.000000015237135
20 -0.000179173689341
21 0.000438696639181
22 -0.000000002011707
23 0.000954789179653
24 -0.001240525457225
25 0.000265938307296
26 0.000129181143674
27 -0.000395119450971
28 0.000000001294035
29 -0.000000000500384
30 -0.000407675946775
31 0.000168120294696
32 0.000061784734216
33 0.000000001066703
34 -0.000211955769136
35 -0.000149353268501
36 0.000031738291301
37 0.000755813738918
38 0.000000000379536
39 0.000005589739773
40 -0.000132619284868
41 -0.000360228803874
42 0.000223787893314
43 0.000000000045543
44 0.000038191098787
45 0.000045578056648
46 -0.001422407976754
47 0.002202504298390
48 0.000000001968754
49 0.000860127195014
50 -0.000101783082098
 Sym=      2.1
 Ene=     -11.2407
 Spin= Alpha
 Occup=    2.000000
1 -0.070099210803206
2 -0.001345799205872
3 0.003108680994552
4 0.000000010521807
5 -0.000053375934728
6 -0.000391769833678
7 -0.000000000232417
8 -0.000457076798347
9 0.001218862346231
10 0.000354951634360
11 -0.000117680514253
12 -0.000237271120107
13 0.000000000499912
14 0.000000002454200
15 0.000206553759577
16 0.99902990564115
17 0.008480811513318
18 -0.009528790785088
19 0.000000013138558
20 -0.000014777084500
21 -0.000030332929252
22 -0.000000004897528
23 -0.000111498785253
24 0.000642031685361
25 -0.000742127172280
26 0.000259838876615
27 0.000482288295665
28 -0.000000004737699
29 -0.000000000635345
30 -0.000067663677240
31 -0.000570171337847
32 0.001472775527778
33 -0.000000000064830
34 0.000424456535545
35 0.000349933595340
36 -0.000565599103395
37 0.001516103886809
38 0.000000003977564
39 -0.000535510565928
40 0.000073058842372
41 0.000028200412386
42 -0.000035206552623
43 -0.000000000021555
44 -0.000003325613895
45 -0.000017074804125
46 0.000252407010330
47 0.000076693686317
48 -0.000000000568876
49 -0.000175685934970
50 0.000069510602686
 Sym=      3.1
 Ene=      -1.0179
 Spin= Alpha
 Occup=    2.000000
1 -0.017465246359810
2 0.56000660347778
3 -0.12582540147808
4 0.000000931651729
5 -0.014901317619727
6 0.23364164897356
7 -0.000000010927784
8 0.005351983077751
9 -0.059680353876856
10 -0.010401664092280
11 -0.009875422749625
12 0.020277086841905
13 0.000000002854539
14 0.000000046052136
15 -0.011552752220742
16 -0.023406893437208
17 0.65786627479893
18 -0.18794230169077
19 0.000001320336110
20 0.057297836641537
21 -0.16831437043305
22 -0.000000113447241
23 -0.018589887967961
24 0.069856269393585
25 -0.007202616169384
26 -0.007898485357349
27 0.015101101526732
28 0.000000041453109
29 -0.000000066453752
30 -0.010818533905681
31 0.21053784426687
32 -0.10404389495096
33 0.000000061635353
34 -0.012214805130352
35 -0.016507165991404
36 0.21464877747352
37 -0.097222484477846
38 -0.000000078437619
39 0.018744368055377
40 -0.007439628568571
41 -0.003330480772006
42 -0.003986466856486
43 0.000000002134100
44 0.000160587569267
45 0.000122027256547
46 0.16600196912209
47 -0.071026813920423
48 -0.000000003046864
49 -0.010989614474199
50 0.010042421298090
 Sym=      4.1
 Ene=      -0.7606
 Spin= Alpha
 Occup=    2.000000
1 -0.011406035650172
2 0.51830499780245
3 -0.091063405222602
4 0.000000421843203
5 0.23053097029150
6 -0.11517013156679
7 -0.000000087986547
8 -0.053208188631244
9 0.029400575685655
10 -0.002555799455988
11 0.007834029818897
12 -0.005278230362909
13 0.000000023055500
14 -0.000000016049569
15 -0.003383586828829
16 0.011076216600262
17 -0.38037120776283
18 0.056769185203021
19 -0.000000321287712
20 0.13911920340404
21 -0.26744106033733
22 0.000000139138270
23 -0.030482493092661
24 0.060341643872391
25 0.000768381560745
26 -0.009217218909684
27 0.008448837348939
28 0.000000087965390
29 -0.000000027013778
30 -0.012021949533540
31 -0.28525159039979
32 0.10017990778785
33 -0.000000039687308
34 0.015072576759394
35 0.009967567977688
36 -0.35004218948789
37 0.13833348170820
38 0.000000139505472
39 -0.022173301748822
40 0.001303496182942
41 -0.004292284867573
42 -0.005208369437648
43 0.000000001070224
44 0.000216997987830
45 0.000159700806959
46 0.48525504159899
47 -0.17958791334841
48 -0.000000061307336
49 -0.024677856636527
50 0.014643692690907
 Sym=      5.1
 Ene=      -0.6135
 Spin= Alpha
 Occup=    2.000000
1 -0.002575538090465
2 -0.10520771321792
3 0.057562635116210
4 0.000000039838714
5 0.34112891298767
6 -0.36220355010983
7 -0.000000097644415
8 -0.091629236527344
9 0.096336838196200
10 -0.000200437726581
11 0.009068060940734
12 -0.008867623214153
13 0.000000016659344
14 -0.000000037045713
15 0.008321892312473
16 -0.002854116999350
17 0.008363287404069
18 0.018897367249546
19 -0.000001236808019
20 0.20168409105317
21 0.55328327420742
22 0.000000156016848
23 -0.035668895377609
24 -0.12050410661495
25 -0.000828306328315
26 0.011897605817092
27 -0.011069299488777
28 -0.000000025413944
29 0.000000001492167
30 0.013406514068880
31 0.53215540182789
32 -0.15680690155369
33 0.000000029978696
34 -0.017731776955251
35 -0.012615053314401
36 -0.037121330109391
37 0.015775973059497
38 -0.000000004928608
39 0.000982773402170
40 0.009813909564481
41 0.005520323417050
42 0.004756941354207
43 -0.000000000479194
44 0.000133901039330
45 -0.000217734177310
46 0.37253370995973
47 -0.11300682855230
48 -0.000000048022842
49 -0.014453864103264
50 0.004295343645620
 Sym=      6.1
 Ene=      -0.5743
 Spin= Alpha
 Occup=    2.000000
1 0.002395598925772
2 -0.031436727161408
3 -0.029400376971941
4 -0.000000640078020
5 -0.13493706646377
6 0.32257078308031
7 0.000000303973384
8 0.026987559371728
9 -0.092777129631681
10 0.001944995997887
11 -0.019887247422675
12 0.017942251424789
13 0.000000005561924
14 -0.000000064005664
15 0.020506769592927
16 0.000864299961383
17 0.031949425090913
18 -0.009693786356267
19 -0.000002145147346
20 0.59024516339611
21 -0.13546072515016
22 0.000000557716095
23 -0.11526913153972
24 0.024750332601306
25 -0.000530236252009
26 -0.017901029161061
27 0.018431265413070
28 0.000000131803067
29 -0.000000059883408
30 0.013002896605561
31 0.32754824219782
32 -0.082644964127925
33 -0.000000009019852
34 -0.000471941409614
35 -0.015391431311481
36 -0.59589141127974
37 0.16376243753087
38 0.000000140073096
39 -0.020092546461484
40 0.006723380296193
41 0.008632088850412
42 0.007889821527056
43 -0.000000000141822
44 -0.000071372723201
45 -0.000071353401478
46 -0.31483355722897
47 0.075572680197671
48 0.000000013222742
49 0.008987539038129
50 -0.002608860207560
 Sym=      7.1
 Ene=      -0.3675
 Spin= Alpha
 Occup=    1.900116
1 0.000000011596632
2 -0.000002035617570
3 -0.000000156795729
4 0.60633970391525
5 0.000001314885549
6 0.000001641701717
7 -0.015413075978548
8 -0.000000189058834
9 0.000000024468819
10 -0.000000061962294
11 -0.000000025461099
12 0.000000087423393
13 -0.005404654940480
14 0.028796435669314
15 0.000000113949049
16 0.000000016241273
17 -0.000001464836238
18 -0.000000055416886
19 0.60348928852961
20 0.000002369326395
21 0.000000367570093
22 0.000633016301385
23 0.000000105108050
24 -0.000000114300722
25 -0.000000008688813
26 0.000000061715697
27 -0.000000053026884
28 0.008710794933466
29 -0.026904094815876
30 -0.000000022294146
31 0.000000135931365
32 0.000000017413856
33 0.013318287577308
34 0.000000056570065
35 0.000000006507740
36 0.000000061340537
37 -0.000000141363473
38 0.013249993274201
39 0.000000079185363
40 -0.000000001059471
41 -0.000000182396534
42 0.000000016788008
43 0.000871156518688
44 -0.000000008653721
45 -0.000000010412541
46 0.000000066202187
47 -0.000000061337356
48 0.014270218522398
49 -0.000000009071189
50 0.000000051589699
 Sym=      8.1
 Ene=      -0.2308
 Spin= Alpha
 Occup=    1.383367
1 0.000051571479472
2 0.21932665990470
3 0.077615696829515
4 0.000002163689520
5 -0.42578457130624
6 -0.36017113223967
7 0.000000213179000
8 -0.024852574272671
9 -0.017604749858599
10 0.001850195479547
11 -0.001239793278836
12 -0.000610402200711
13 -0.000000061347257
14 0.000000004426425
15 0.018326259991884
16 -0.001670542701633
17 -0.078829764612758
18 0.023559978217916
19 0.000000559714826
20 0.010659586236423
21 0.093076563655821
22 -0.000000072905912
23 0.044428109688161
24 -0.015111114064352
25 0.000703546390194
26 -0.012521906317925
27 0.011818359927732
28 0.000000055568694
29 -0.000000108417807
30 0.022839932903565
31 0.12008400975888
32 0.011356280363903
33 0.000000018391026
34 -0.000367399451661
35 0.000652064504988
36 -0.090512630007310
37 0.017126651712421
38 0.000000008977207
39 0.000396291302437
40 0.002478558411997
41 0.65096853032896
42 0.035379412729227
43 0.000000006217685
44 0.000146130499366
45 0.000033729647815
46 -0.14589116878072
47 0.018430948503801
48 0.000000057294159
49 -0.005417607545517
50 -0.009492285771444
 Sym=      9.1
 Ene=      -0.0692
 Spin= Alpha
 Occup=    0.616661
1 -0.001411320856074
2 -0.27162258299639
3 -0.11260534790265
4 -0.000002197538012
5 0.49580735032311
6 0.42887818568411
7 -0.000000182508327
8 0.035246252930491
9 0.004937095740132
10 -0.000065756559742
11 0.000165735105973
12 -0.000099978546231
13 0.000000086695558
14 0.000000042059273
15 -0.024984482306007
16 0.000597225088727
17 0.078635518451403
18 -0.004871890043940
19 0.000000011077395
20 -0.013917259177360
21 -0.10922563073004
22 0.000000166226797
23 -0.058342576779878
24 0.000726914074900
25 -0.002165109062524
26 0.014186327837052
27 -0.012021218774528
28 -0.000000063606252
29 0.000000106138574
30 -0.024865665592754
31 -0.13556362800896
32 -0.001389556013085
33 -0.000000006401546
34 0.000475948084899
35 0.000465079175969
36 0.093501470516477
37 -0.017907632153998
38 0.000000007620892
39 -0.000696949044776
40 -0.003389584379055
41 0.77942782261501
42 -0.042342674349371
43 -0.000000000454034
44 -0.000761048188835
45 -0.000824848614372
46 0.15220752914690
47 -0.023321651380045
48 -0.000000054789334
49 0.005747724051083
50 0.009796221963461
 Sym=     10.1
 Ene=       0.2167
 Spin= Alpha
 Occup=    0.099855
1 -0.000000234056583
2 -0.000002927210462
3 -0.000000596518390
4 0.89702635299239
5 0.000001187437600
6 0.000001223101480
7 -0.041449760104454
8 0.000000061063814
9 -0.000001025907398
10 -0.000000402669817
11 0.000000198350349
12 0.000000204319468
13 -0.007293811502306
14 -0.010720229775342
15 -0.000000204841172
16 0.000000116324810
17 0.000002540749880
18 0.000001383648573
19 -0.85629039968806
20 -0.000003110399410
21 -0.000001238080089
22 0.008662622564721
23 0.000000321284674
24 -0.000000640597869
25 0.000000499092635
26 -0.000000278975011
27 -0.000000220117624
28 0.002576092865613
29 -0.009778379325654
30 0.000000013163888
31 -0.000000663925379
32 0.000000222491538
33 -0.011152198381285
34 -0.000000056226576
35 -0.000000006131233
36 -0.000001572294570
37 0.000000311081145
38 -0.010972012945939
39 -0.000000055165309
40 0.000000017587113
41 0.000000191682942
42 0.000000118827067
43 -0.000283553277818
44 0.000000016943158
45 0.000000019168754
46 0.000001348170911
47 -0.000000399560039
48 0.011766925987062
49 -0.000000005701535
50 0.000000050770361
 Sym=     11.1
 Ene=       0.2102
 Spin= Alpha
 Occup=    0.000000
1 0.018020303214228
2 -0.058454056923995
3 -0.64189977282298
4 -0.000000161626070
5 -0.12717404956111
6 0.11340767824278
7 -0.000000049232769
8 -0.28510783848942
9 0.24674648222550
10 0.004018000984687
11 -0.004993277053974
12 0.000975276069287
13 -0.000000079454620
14 -0.000000016114643
15 0.012181741695213
16 0.061469224108279
17 -0.15202268536538
18 -1.73109529242362
19 -0.000000550026221
20 -0.006573983134740
21 -0.25167034367493
22 -0.000001381442591
23 0.083944582969553
24 -0.50374498156583
25 0.021030214088274
26 -0.019804770161258
27 -0.001225443927017
28 0.000000224230093
29 -0.000000033709124
30 0.000077780720109
31 0.030761971788602
32 1.43369936291846
33 0.000000034666859
34 -0.011941486412221
35 -0.015821176069972
36 0.036495466892984
37 1.02232045325519
38 -0.000000113199107
39 0.017103376399550
40 -0.006223157176573
41 -0.066270914809580
42 0.034128178269921
43 0.000000012763030
44 -0.000366115346595
45 0.005261485473078
46 -0.033228700270488
47 0.90494180512367
48 -0.000000031985661
49 -0.007464021515753
50 0.012598954284638
 Sym=     12.1
 Ene=       0.2236
 Spin= Alpha
 Occup=    0.000000
1 0.040656575056762
2 -0.15564426395891
3 -1.07695377937575
4 -0.000000870357677
5 -0.26068173026094
6 0.070008053221525
7 -0.000002744254684
8 -0.53197868571206
9 0.34743930416032
10 0.010321082972227
11 -0.019337347587877
12 0.009016264615650
13 -0.000000037323748
14 0.000000074742290
15 0.003281442259065
16 -0.025465753351253
17 0.15786717594377
18 0.64966949002579
19 0.000001590484185
20 -0.19466483168438
21 -0.026476746969359
22 0.000003987673725
23 -0.35011568258688
24 0.16123431108277
25 -0.009153812187630
26 0.004884361903036
27 0.004269450284595
28 -0.000000095691144
29 0.000000026747497
30 0.015018829855070
31 0.011914365746320
32 0.000782396386696
33 0.000000019967133
34 0.005604346142389
35 0.000314073719937
36 -0.061931466249074
37 -1.26916800855230
38 0.000000076329394
39 -0.014216442365519
40 -0.001746455362779
41 -0.000663575114524
42 -0.017489760110468
43 -0.000000020540194
44 0.001418573906082
45 -0.001866848549550
46 0.086248543818492
47 1.75692516508310
48 -0.000000056428419
49 -0.021967267714949
50 0.006502673642137
 Sym=     13.1
 Ene=       0.2715
 Spin= Alpha
 Occup=    0.000000
1 -0.024694729444654
2 0.065081491023115
3 0.80639047180397
4 0.000000499746989
5 0.099387607060453
6 -0.037249143117602
7 -0.000000872989840
8 0.78121629368556
9 -0.039962718748514
10 -0.017226936545501
11 0.023630255228371
12 -0.006403318682871
13 0.000000117918072
14 -0.000000006142233
15 -0.019345117463814
16 0.009453044363043
17 -0.013781783882971
18 -0.13307052032103
19 0.000001634141061
20 -0.38783306720252
21 -0.10915142586938
22 0.000004974870439
23 -1.38010725569543
24 -0.35121979433119
25 0.004218413152868
26 0.011281561724243
27 -0.015499974877111
28 -0.000000194149624
29 0.000000044048427
30 -0.026929136520357
31 -0.020069470331686
32 1.92329647749502
33 0.000000049955753
34 -0.014469468653020
35 -0.022406786070652
36 0.035242169555497
37 -1.73977085987784
38 0.000000095486727
39 -0.019723458546015
40 0.012668235221549
41 0.090289057540904
42 0.001425867317969
43 -0.000000037926826
44 -0.006645244722727
45 -0.008887519371881
46 0.061338276915778
47 -1.22766014896750
48 0.000000053046745
49 0.018176567774040
50 -0.011483275519468
 Sym=     14.1
 Ene=       0.4581
 Spin= Alpha
 Occup=    0.000000
1 -0.047443676452387
2 0.16822115692753
3 3.74310589279101
4 -0.000000220865059
5 -0.19617791159966
6 0.21336644063257
7 -0.000001432120509
8 -1.05263800124807
9 2.73556960747390
10 -0.030869158327696
11 -0.028490012641065
12 0.059359170968761
13 0.000000142448173
14 0.000000038246380
15 -0.035727064802174
16 0.081748466616674
17 0.064603144011887
18 -3.63984417864406
19 0.000000230158659
20 -0.017069695186773
21 0.085139204517312
22 -0.000001605048342
23 -0.78773218611093
24 3.30134456098869
25 0.056185015359493
26 -0.030002198737399
27 -0.026182816622094
28 0.000000414777573
29 0.000000154861526
30 0.021762557932151
31 -0.24622098022328
32 -0.62575432337421
33 0.000000079451408
34 -0.014004813949873
35 0.004522786717510
36 -0.27089780856686
37 -0.28321664880727
38 -0.000000123233559
39 0.021863214584601
40 0.007171733407811
41 0.15684229259803
42 -0.087630176693842
43 -0.000000025126606
44 -0.016380343327466
45 0.000383200131995
46 -0.090901932899607
47 1.14934185779774
48 0.000000058072224
49 0.017191932178831
50 0.000412640523612
 Sym=     15.1
 Ene=       0.5922
 Spin= Alpha
 Occup=    0.000000
1 0.18122393063988
2 0.58544166212244
3 -1.05074065213534
4 -0.000000762195897
5 -0.10540383854241
6 0.44373044639923
7 -0.000000402770988
8 0.35203804477280
9 -1.35947947832474
10 -0.082885662494726
11 0.041449831179469