
    -----------------------------------------------------------------------
          Psi4: An Open-Source Ab Initio Electronic Structure Package
                               Psi4 1.3.2 release

                         Git: Rev {HEAD} ecbda83 


    R. M. Parrish, L. A. Burns, D. G. A. Smith, A. C. Simmonett,
    A. E. DePrince III, E. G. Hohenstein, U. Bozkaya, A. Yu. Sokolov,
    R. Di Remigio, R. M. Richard, J. F. Gonthier, A. M. James,
    H. R. McAlexander, A. Kumar, M. Saitow, X. Wang, B. P. Pritchard,
    P. Verma, H. F. Schaefer III, K. Patkowski, R. A. King, E. F. Valeev,
    F. A. Evangelista, J. M. Turney, T. D. Crawford, and C. D. Sherrill,
    J. Chem. Theory Comput. 13(7) pp 3185--3197 (2017).
    (doi: 10.1021/acs.jctc.7b00174)


                         Additional Contributions by
    P. Kraus, H. Kruse, M. H. Lechner, M. C. Schieber, R. A. Shaw,
    A. Alenaizan, R. Galvelis, Z. L. Glick, S. Lehtola, and J. P. Misiewicz

    -----------------------------------------------------------------------


    Psi4 started on: Friday, 23 August 2019 03:34PM

    Process ID: 18963
    Host:       blueslogin2
    PSIDATADIR: /home/elliott/miniconda2/envs/pacc-env-mini/share/psi4
    Memory:     500.0 MiB
    Threads:    1
    
  ==> Input File <==

--------------------------------------------------------------------------
#! 
memory 1 GB

molecule {

0 1
C    0.000000  -0.000001   0.000000
H    0.000000   1.100141   0.000000
H   -0.518614  -0.366711   0.898261
H   -0.518614  -0.366711  -0.898261
H    1.037223  -0.366713   0.000000
}
set basis cc-pvdz
set scf_type pk
set reference rks
set mp2_type conv
_, wfn = frequency('B3LYP', return_wfn=True)
hess = wfn.hessian()
hess.name = 'Hessian'
hess.print_out()
--------------------------------------------------------------------------

  Memory set to 953.674 MiB by Python driver.
gradient() will perform analytic gradient computation.

*** tstart() called on blueslogin2
*** at Fri Aug 23 15:34:20 2019

   => Loading Basis Set <=

    Name: CC-PVDZ
    Role: ORBITAL
    Keyword: BASIS
    atoms 1   entry C          line   138 file /home/elliott/miniconda2/envs/pacc-env-mini/share/psi4/basis/cc-pvdz.gbs 
    atoms 2-5 entry H          line    22 file /home/elliott/miniconda2/envs/pacc-env-mini/share/psi4/basis/cc-pvdz.gbs 


         ---------------------------------------------------------
                                   SCF
               by Justin Turney, Rob Parrish, Andy Simmonett
                          and Daniel G. A. Smith
                              RKS Reference
                        1 Threads,    953 MiB Core
         ---------------------------------------------------------

  ==> Geometry <==

    Molecular point group: cs
    Full point group: Cs

    Geometry (in Angstrom), charge = 0, multiplicity = 1:

       Center              X                  Y                   Z               Mass       
    ------------   -----------------  -----------------  -----------------  -----------------
         C            0.000000314330    -0.000000628661     0.000000000000    12.000000000000
         H            0.000000314330     1.100141371339     0.000000000000     1.007825032230
         H           -0.518613685670    -0.366710628661     0.898261000000     1.007825032230
         H           -0.518613685670    -0.366710628661    -0.898261000000     1.007825032230
         H            1.037223314330    -0.366712628661     0.000000000000     1.007825032230

  Running in cs symmetry.

  Rotational constants: A =      5.18259  B =      5.18258  C =      5.18257 [cm^-1]
  Rotational constants: A = 155370.08198  B = 155369.75119  C = 155369.60221 [MHz]
  Nuclear repulsion =   13.311543265749517

  Charge       = 0
  Multiplicity = 1
  Electrons    = 10
  Nalpha       = 5
  Nbeta        = 5

  ==> Algorithm <==

  SCF Algorithm Type is PK.
  DIIS enabled.
  MOM disabled.
  Fractional occupation disabled.
  Guess Type is SAD.
  Energy threshold   = 1.00e-08
  Density threshold  = 1.00e-08
  Integral threshold = 0.00e+00

  ==> Primary Basis <==

  Basis Set: CC-PVDZ
    Blend: CC-PVDZ
    Number of shells: 18
    Number of basis function: 34
    Number of Cartesian functions: 35
    Spherical Harmonics?: true
    Max angular momentum: 2

  ==> DFT Potential <==

   => Composite Functional: B3LYP <= 

    B3LYP Hyb-GGA Exchange-Correlation Functional

    P. J. Stephens, F. J. Devlin, C. F. Chabalowski, and M. J. Frisch, J. Phys. Chem. 98, 11623 (1994)

    Deriv               =              1
    GGA                 =           TRUE
    Meta                =          FALSE

    Exchange Hybrid     =           TRUE
    MP2 Hybrid          =          FALSE

   => Exchange Functionals <=

    0.0800   Slater exchange
    0.7200         Becke 88

   => Exact (HF) Exchange <=

    0.2000               HF 

   => Correlation Functionals <=

    0.1900   Vosko, Wilk & Nusair (VWN5_RPA)
    0.8100   Lee, Yang & Parr

   => Molecular Quadrature <=

    Radial Scheme          =       TREUTLER
    Pruning Scheme         =           FLAT
    Nuclear Scheme         =       TREUTLER

    BS radius alpha        =              1
    Pruning alpha          =              1
    Radial Points          =             75
    Spherical Points       =            302
    Total Points           =         111412
    Total Blocks           =            911
    Max Points             =            255
    Max Functions          =             34

  ==> Pre-Iterations <==

   -------------------------------------------------------
    Irrep   Nso     Nmo     Nalpha   Nbeta   Ndocc  Nsocc
   -------------------------------------------------------
     A'        23      23       0       0       0       0
     A"        11      11       0       0       0       0
   -------------------------------------------------------
    Total      34      34       5       5       5       0
   -------------------------------------------------------

  ==> Integral Setup <==

  Using in-core PK algorithm.
   Calculation information:
      Number of atoms:                   5
      Number of AO shells:              18
      Number of primitives:             42
      Number of atomic orbitals:        35
      Number of basis functions:        34

      Integral cutoff                 1.00e-12
      Number of threads:                 1

  Performing in-core PK
  Using 354620 doubles for integral storage.
  We computed 14706 shell quartets total.
  Whereas there are 14706 unique shell quartets.

  ==> DiskJK: Disk-Based J/K Matrices <==

    J tasked:                  Yes
    K tasked:                  Yes
    wK tasked:                  No
    Memory [MiB]:              605
    Schwarz Cutoff:          1E-12

    OpenMP threads:              1

  Cached 100.0% of DFT collocation blocks in 0.107 [GiB].

  Minimum eigenvalue in the overlap matrix is 2.3528761039E-02.
  Using Symmetric Orthogonalization.

  SCF Guess: Superposition of Atomic Densities via on-the-fly atomic UHF.

  ==> Iterations <==

                        Total Energy        Delta E     RMS |[F,P]|

   @RKS iter SAD:   -40.07279330149676   -4.00728e+01   0.00000e+00 
   @RKS iter   1:   -40.32204529016468   -2.49252e-01   2.37535e-02 DIIS
   @RKS iter   2:   -40.26124503112464    6.08003e-02   2.55348e-02 DIIS
   @RKS iter   3:   -40.51611667813905   -2.54872e-01   7.25169e-04 DIIS
   @RKS iter   4:   -40.51634801676184   -2.31339e-04   3.60240e-05 DIIS
   @RKS iter   5:   -40.51634844017145   -4.23410e-07   2.64844e-06 DIIS
   @RKS iter   6:   -40.51634844239051   -2.21906e-09   2.02991e-07 DIIS
   @RKS iter   7:   -40.51634844240554   -1.50351e-11   5.89279e-09 DIIS
  Energy and wave function converged.


  ==> Post-Iterations <==

    Orbital Energies [Eh]
    ---------------------

    Doubly Occupied:                                                      

       1Ap   -10.174732     2Ap    -0.690216     3Ap    -0.388423  
       1App   -0.388422     4Ap    -0.388421  

    Virtual:                                                              

       5Ap     0.072970     6Ap     0.142806     7Ap     0.142806  
       2App    0.142806     8Ap     0.413721     3App    0.413722  
       9Ap     0.413722    10Ap     0.649846    11Ap     0.649847  
       4App    0.649847    12Ap     0.676813     5App    0.900811  
      13Ap     0.900811    14Ap     1.041467     6App    1.414680  
      15Ap     1.414681     7App    1.414682    16Ap     1.609926  
       8App    1.609928    17Ap     1.609929    18Ap     1.920433  
       9App    1.920436    19Ap     1.920439    10App    2.232763  
      20Ap     2.232765    21Ap     2.391030    22Ap     2.426704  
      23Ap     2.426704    11App    2.426705  

    Final Occupation by Irrep:
             Ap   App 
    DOCC [     4,    1 ]

  @RKS Final Energy:   -40.51634844240554

   => Energetics <=

    Nuclear Repulsion Energy =             13.3115432657495170
    One-Electron Energy =                 -79.5829063376635730
    Two-Electron Energy =                  31.3332382987087747
    DFT Exchange-Correlation Energy =      -5.5782236692002654
    Empirical Dispersion Energy =           0.0000000000000000
    VV10 Nonlocal Energy =                  0.0000000000000000
    Total Energy =                        -40.5163484424055369

Computation Completed


Properties will be evaluated at   0.000000,   0.000000,   0.000000 [a0]

Properties computed using the SCF density matrix

  Nuclear Dipole Moment: [e a0]
     X:    -0.0000      Y:     0.0000      Z:     0.0000

  Electronic Dipole Moment: [e a0]
     X:     0.0000      Y:    -0.0000      Z:     0.0000

  Dipole Moment: [e a0]
     X:     0.0000      Y:    -0.0000      Z:     0.0000     Total:     0.0000

  Dipole Moment: [D]
     X:     0.0000      Y:    -0.0000      Z:     0.0000     Total:     0.0000


*** tstop() called on blueslogin2 at Fri Aug 23 15:34:24 2019
Module time:
	user time   =       3.38 seconds =       0.06 minutes
	system time =       0.16 seconds =       0.00 minutes
	total time  =          4 seconds =       0.07 minutes
Total time:
	user time   =       3.38 seconds =       0.06 minutes
	system time =       0.16 seconds =       0.00 minutes
	total time  =          4 seconds =       0.07 minutes

*** tstart() called on blueslogin2
*** at Fri Aug 23 15:34:24 2019


         ------------------------------------------------------------
                                   SCF GRAD                          
                          Rob Parrish, Justin Turney,                
                       Andy Simmonett, and Alex Sokolov              
         ------------------------------------------------------------

  ==> Geometry <==

    Molecular point group: cs
    Full point group: Cs

    Geometry (in Angstrom), charge = 0, multiplicity = 1:

       Center              X                  Y                   Z               Mass       
    ------------   -----------------  -----------------  -----------------  -----------------
         C            0.000000314330    -0.000000628661     0.000000000000    12.000000000000
         H            0.000000314330     1.100141371339     0.000000000000     1.007825032230
         H           -0.518613685670    -0.366710628661     0.898261000000     1.007825032230
         H           -0.518613685670    -0.366710628661    -0.898261000000     1.007825032230
         H            1.037223314330    -0.366712628661     0.000000000000     1.007825032230

  Nuclear repulsion =   13.311543265749517

  ==> Basis Set <==

  Basis Set: CC-PVDZ
    Blend: CC-PVDZ
    Number of shells: 18
    Number of basis function: 34
    Number of Cartesian functions: 35
    Spherical Harmonics?: true
    Max angular momentum: 2

  ==> DirectJKGrad: Integral-Direct SCF Gradients <==

    Gradient:                    1
    J tasked:                  Yes
    K tasked:                  Yes
    wK tasked:                  No
    Integrals threads:           1
    Schwarz Cutoff:          0E+00

  ==> DFT Potential <==

   => Composite Functional: B3LYP <= 

    B3LYP Hyb-GGA Exchange-Correlation Functional

    P. J. Stephens, F. J. Devlin, C. F. Chabalowski, and M. J. Frisch, J. Phys. Chem. 98, 11623 (1994)

    Deriv               =              1
    GGA                 =           TRUE
    Meta                =          FALSE

    Exchange Hybrid     =           TRUE
    MP2 Hybrid          =          FALSE

   => Exchange Functionals <=

    0.0800   Slater exchange
    0.7200         Becke 88

   => Exact (HF) Exchange <=

    0.2000               HF 

   => Correlation Functionals <=

    0.1900   Vosko, Wilk & Nusair (VWN5_RPA)
    0.8100   Lee, Yang & Parr

   => Molecular Quadrature <=

    Radial Scheme          =       TREUTLER
    Pruning Scheme         =           FLAT
    Nuclear Scheme         =       TREUTLER

    BS radius alpha        =              1
    Pruning alpha          =              1
    Radial Points          =             75
    Spherical Points       =            302
    Total Points           =         111412
    Total Blocks           =            911
    Max Points             =            255
    Max Functions          =             34


  -Total Gradient:
     Atom            X                  Y                   Z
    ------   -----------------  -----------------  -----------------
       1       -0.000000628725    -0.000001043544     0.000000000000
       2        0.000000381239     0.000146406096     0.000000000000
       3       -0.000069084334    -0.000048304642     0.000119263078
       4       -0.000069084334    -0.000048304642    -0.000119263078
       5        0.000137427256    -0.000049217574     0.000000000000


*** tstop() called on blueslogin2 at Fri Aug 23 15:34:24 2019
Module time:
	user time   =       0.84 seconds =       0.01 minutes
	system time =       0.01 seconds =       0.00 minutes
	total time  =          0 seconds =       0.00 minutes
Total time:
	user time   =       4.22 seconds =       0.07 minutes
	system time =       0.17 seconds =       0.00 minutes
	total time  =          4 seconds =       0.07 minutes

  Based on options and gradient (rms=7.55E-05), recommend projecting translations and projecting rotations.
hessian() will perform frequency computation by finite difference of analytic gradients.

         ----------------------------------------------------------
                                   FINDIF
                     R. A. King and Jonathon Misiewicz
         ---------------------------------------------------------

  Using finite-differences of gradients to determine vibrational frequencies and 
  normal modes.  Resulting frequencies are only valid at stationary points.
    Generating geometries for use with 3-point formula.
    Displacement size will be 5.00e-03.
    Number of atoms is 5.
    Number of irreps is 2.
    Number of SALCs is 9.
    Translations projected? 1. Rotations projected? 1.
    Index of SALCs per irrep:
     1 :  0  1  2  3  4  5 
     2 :  6  7  8 
    Number of SALCs per irrep:
     Irrep 1: 6
     Irrep 2: 3
    Number of geometries (including reference) is 16.
    Number of displacements per irrep:
      Irrep 1: 12
      Irrep 2: 3

  //>>>>>>>>>>>>>>>>>>>>>>>>>>>>>>>>>>>//
  //    Loading displacement 1 of 16   //
  //<<<<<<<<<<<<<<<<<<<<<<<<<<<<<<<<<<<//
gradient() will perform analytic gradient computation.

*** tstart() called on blueslogin2
*** at Fri Aug 23 15:34:27 2019

   => Loading Basis Set <=

    Name: CC-PVDZ
    Role: ORBITAL
    Keyword: BASIS
    atoms 1   entry C          line   138 file /home/elliott/miniconda2/envs/pacc-env-mini/share/psi4/basis/cc-pvdz.gbs 
    atoms 2-5 entry H          line    22 file /home/elliott/miniconda2/envs/pacc-env-mini/share/psi4/basis/cc-pvdz.gbs 


         ---------------------------------------------------------
                                   SCF
               by Justin Turney, Rob Parrish, Andy Simmonett
                          and Daniel G. A. Smith
                              RKS Reference
                        1 Threads,    953 MiB Core
         ---------------------------------------------------------

  ==> Geometry <==

    Molecular point group: cs
    Full point group: Cs

    Geometry (in Angstrom), charge = 0, multiplicity = 1:

       Center              X                  Y                   Z               Mass       
    ------------   -----------------  -----------------  -----------------  -----------------
         C            0.000000314330    -0.000000628661     0.000000000000    12.000000000000
         H            0.000000314330     1.100141371339     0.000000000000     1.007825032230
         H           -0.518613685670    -0.366710628661     0.898261000000     1.007825032230
         H           -0.518613685670    -0.366710628661    -0.898261000000     1.007825032230
         H            1.037223314330    -0.366712628661     0.000000000000     1.007825032230

  Running in cs symmetry.

  Rotational constants: A =      5.18259  B =      5.18258  C =      5.18257 [cm^-1]
  Rotational constants: A = 155370.08198  B = 155369.75119  C = 155369.60221 [MHz]
  Nuclear repulsion =   13.311543265749517

  Charge       = 0
  Multiplicity = 1
  Electrons    = 10
  Nalpha       = 5
  Nbeta        = 5

  ==> Algorithm <==

  SCF Algorithm Type is PK.
  DIIS enabled.
  MOM disabled.
  Fractional occupation disabled.
  Guess Type is SAD.
  Energy threshold   = 1.00e-08
  Density threshold  = 1.00e-08
  Integral threshold = 0.00e+00

  ==> Primary Basis <==

  Basis Set: CC-PVDZ
    Blend: CC-PVDZ
    Number of shells: 18
    Number of basis function: 34
    Number of Cartesian functions: 35
    Spherical Harmonics?: true
    Max angular momentum: 2

  ==> DFT Potential <==

   => Composite Functional: B3LYP <= 

    B3LYP Hyb-GGA Exchange-Correlation Functional

    P. J. Stephens, F. J. Devlin, C. F. Chabalowski, and M. J. Frisch, J. Phys. Chem. 98, 11623 (1994)

    Deriv               =              1
    GGA                 =           TRUE
    Meta                =          FALSE

    Exchange Hybrid     =           TRUE
    MP2 Hybrid          =          FALSE

   => Exchange Functionals <=

    0.0800   Slater exchange
    0.7200         Becke 88

   => Exact (HF) Exchange <=

    0.2000               HF 

   => Correlation Functionals <=

    0.1900   Vosko, Wilk & Nusair (VWN5_RPA)
    0.8100   Lee, Yang & Parr

   => Molecular Quadrature <=

    Radial Scheme          =       TREUTLER
    Pruning Scheme         =           FLAT
    Nuclear Scheme         =       TREUTLER

    BS radius alpha        =              1
    Pruning alpha          =              1
    Radial Points          =             75
    Spherical Points       =            302
    Total Points           =         111412
    Total Blocks           =            911
    Max Points             =            255
    Max Functions          =             34

  ==> Pre-Iterations <==

   -------------------------------------------------------
    Irrep   Nso     Nmo     Nalpha   Nbeta   Ndocc  Nsocc
   -------------------------------------------------------
     A'        23      23       0       0       0       0
     A"        11      11       0       0       0       0
   -------------------------------------------------------
    Total      34      34       5       5       5       0
   -------------------------------------------------------

  ==> Integral Setup <==

  Using in-core PK algorithm.
   Calculation information:
      Number of atoms:                   5
      Number of AO shells:              18
      Number of primitives:             42
      Number of atomic orbitals:        35
      Number of basis functions:        34

      Integral cutoff                 1.00e-12
      Number of threads:                 1

  Performing in-core PK
  Using 354620 doubles for integral storage.
  We computed 14706 shell quartets total.
  Whereas there are 14706 unique shell quartets.

  ==> DiskJK: Disk-Based J/K Matrices <==

    J tasked:                  Yes
    K tasked:                  Yes
    wK tasked:                  No
    Memory [MiB]:              605
    Schwarz Cutoff:          1E-12

    OpenMP threads:              1

  Cached 100.0% of DFT collocation blocks in 0.107 [GiB].

  Minimum eigenvalue in the overlap matrix is 2.3528761039E-02.
  Using Symmetric Orthogonalization.

  SCF Guess: Superposition of Atomic Densities via on-the-fly atomic UHF.

  ==> Iterations <==

                        Total Energy        Delta E     RMS |[F,P]|

   @RKS iter SAD:   -40.07279330149676   -4.00728e+01   0.00000e+00 
   @RKS iter   1:   -40.32204529016468   -2.49252e-01   2.37535e-02 DIIS
   @RKS iter   2:   -40.26124503112465    6.08003e-02   2.55348e-02 DIIS
   @RKS iter   3:   -40.51611667813902   -2.54872e-01   7.25169e-04 DIIS
   @RKS iter   4:   -40.51634801676185   -2.31339e-04   3.60240e-05 DIIS
   @RKS iter   5:   -40.51634844017146   -4.23410e-07   2.64844e-06 DIIS
   @RKS iter   6:   -40.51634844239048   -2.21902e-09   2.02991e-07 DIIS
   @RKS iter   7:   -40.51634844240556   -1.50777e-11   5.89279e-09 DIIS
  Energy and wave function converged.


  ==> Post-Iterations <==

    Orbital Energies [Eh]
    ---------------------

    Doubly Occupied:                                                      

       1Ap   -10.174732     2Ap    -0.690216     3Ap    -0.388423  
       1App   -0.388422     4Ap    -0.388421  

    Virtual:                                                              

       5Ap     0.072970     6Ap     0.142806     7Ap     0.142806  
       2App    0.142806     8Ap     0.413721     3App    0.413722  
       9Ap     0.413722    10Ap     0.649846    11Ap     0.649847  
       4App    0.649847    12Ap     0.676813     5App    0.900811  
      13Ap     0.900811    14Ap     1.041467     6App    1.414680  
      15Ap     1.414681     7App    1.414682    16Ap     1.609926  
       8App    1.609928    17Ap     1.609929    18Ap     1.920433  
       9App    1.920436    19Ap     1.920439    10App    2.232763  
      20Ap     2.232765    21Ap     2.391030    22Ap     2.426704  
      23Ap     2.426704    11App    2.426705  

    Final Occupation by Irrep:
             Ap   App 
    DOCC [     4,    1 ]

  @RKS Final Energy:   -40.51634844240556

   => Energetics <=

    Nuclear Repulsion Energy =             13.3115432657495170
    One-Electron Energy =                 -79.5829063376635304
    Two-Electron Energy =                  31.3332382987087037
    DFT Exchange-Correlation Energy =      -5.5782236692002583
    Empirical Dispersion Energy =           0.0000000000000000
    VV10 Nonlocal Energy =                  0.0000000000000000
    Total Energy =                        -40.5163484424055582

Computation Completed


Properties will be evaluated at   0.000000,   0.000000,   0.000000 [a0]

Properties computed using the SCF density matrix

  Nuclear Dipole Moment: [e a0]
     X:    -0.0000      Y:     0.0000      Z:     0.0000

  Electronic Dipole Moment: [e a0]
     X:     0.0000      Y:    -0.0000      Z:     0.0000

  Dipole Moment: [e a0]
     X:     0.0000      Y:    -0.0000      Z:     0.0000     Total:     0.0000

  Dipole Moment: [D]
     X:     0.0000      Y:    -0.0000      Z:     0.0000     Total:     0.0000


*** tstop() called on blueslogin2 at Fri Aug 23 15:34:30 2019
Module time:
	user time   =       3.41 seconds =       0.06 minutes
	system time =       0.14 seconds =       0.00 minutes
	total time  =          3 seconds =       0.05 minutes
Total time:
	user time   =       8.56 seconds =       0.14 minutes
	system time =       0.61 seconds =       0.01 minutes
	total time  =         10 seconds =       0.17 minutes

*** tstart() called on blueslogin2
*** at Fri Aug 23 15:34:30 2019


         ------------------------------------------------------------
                                   SCF GRAD                          
                          Rob Parrish, Justin Turney,                
                       Andy Simmonett, and Alex Sokolov              
         ------------------------------------------------------------

  ==> Geometry <==

    Molecular point group: cs
    Full point group: Cs

    Geometry (in Angstrom), charge = 0, multiplicity = 1:

       Center              X                  Y                   Z               Mass       
    ------------   -----------------  -----------------  -----------------  -----------------
         C            0.000000314330    -0.000000628661     0.000000000000    12.000000000000
         H            0.000000314330     1.100141371339     0.000000000000     1.007825032230
         H           -0.518613685670    -0.366710628661     0.898261000000     1.007825032230
         H           -0.518613685670    -0.366710628661    -0.898261000000     1.007825032230
         H            1.037223314330    -0.366712628661     0.000000000000     1.007825032230

  Nuclear repulsion =   13.311543265749517

  ==> Basis Set <==

  Basis Set: CC-PVDZ
    Blend: CC-PVDZ
    Number of shells: 18
    Number of basis function: 34
    Number of Cartesian functions: 35
    Spherical Harmonics?: true
    Max angular momentum: 2

  ==> DirectJKGrad: Integral-Direct SCF Gradients <==

    Gradient:                    1
    J tasked:                  Yes
    K tasked:                  Yes
    wK tasked:                  No
    Integrals threads:           1
    Schwarz Cutoff:          0E+00

  ==> DFT Potential <==

   => Composite Functional: B3LYP <= 

    B3LYP Hyb-GGA Exchange-Correlation Functional

    P. J. Stephens, F. J. Devlin, C. F. Chabalowski, and M. J. Frisch, J. Phys. Chem. 98, 11623 (1994)

    Deriv               =              1
    GGA                 =           TRUE
    Meta                =          FALSE

    Exchange Hybrid     =           TRUE
    MP2 Hybrid          =          FALSE

   => Exchange Functionals <=

    0.0800   Slater exchange
    0.7200         Becke 88

   => Exact (HF) Exchange <=

    0.2000               HF 

   => Correlation Functionals <=

    0.1900   Vosko, Wilk & Nusair (VWN5_RPA)
    0.8100   Lee, Yang & Parr

   => Molecular Quadrature <=

    Radial Scheme          =       TREUTLER
    Pruning Scheme         =           FLAT
    Nuclear Scheme         =       TREUTLER

    BS radius alpha        =              1
    Pruning alpha          =              1
    Radial Points          =             75
    Spherical Points       =            302
    Total Points           =         111412
    Total Blocks           =            911
    Max Points             =            255
    Max Functions          =             34


  -Total Gradient:
     Atom            X                  Y                   Z
    ------   -----------------  -----------------  -----------------
       1       -0.000000628725    -0.000001043544     0.000000000000
       2        0.000000381239     0.000146406096     0.000000000000
       3       -0.000069084334    -0.000048304642     0.000119263078
       4       -0.000069084334    -0.000048304642    -0.000119263078
       5        0.000137427256    -0.000049217574     0.000000000000


*** tstop() called on blueslogin2 at Fri Aug 23 15:34:31 2019
Module time:
	user time   =       0.84 seconds =       0.01 minutes
	system time =       0.00 seconds =       0.00 minutes
	total time  =          1 seconds =       0.02 minutes
Total time:
	user time   =       9.40 seconds =       0.16 minutes
	system time =       0.61 seconds =       0.01 minutes
	total time  =         11 seconds =       0.18 minutes

  //>>>>>>>>>>>>>>>>>>>>>>>>>>>>>>>>>>>//
  //    Loading displacement 2 of 16   //
  //<<<<<<<<<<<<<<<<<<<<<<<<<<<<<<<<<<<//
gradient() will perform analytic gradient computation.

*** tstart() called on blueslogin2
*** at Fri Aug 23 15:34:31 2019

   => Loading Basis Set <=

    Name: CC-PVDZ
    Role: ORBITAL
    Keyword: BASIS
    atoms 1   entry C          line   138 file /home/elliott/miniconda2/envs/pacc-env-mini/share/psi4/basis/cc-pvdz.gbs 
    atoms 2-5 entry H          line    22 file /home/elliott/miniconda2/envs/pacc-env-mini/share/psi4/basis/cc-pvdz.gbs 


         ---------------------------------------------------------
                                   SCF
               by Justin Turney, Rob Parrish, Andy Simmonett
                          and Daniel G. A. Smith
                              RKS Reference
                        1 Threads,    953 MiB Core
         ---------------------------------------------------------

  ==> Geometry <==

    Molecular point group: cs
    Full point group: Cs

    Geometry (in Angstrom), charge = 0, multiplicity = 1:

       Center              X                  Y                   Z               Mass       
    ------------   -----------------  -----------------  -----------------  -----------------
         C           -0.000382703250    -0.000000628661     0.000000000000    12.000000000000
         H            0.001140441621     1.100141371339     0.000000000000     1.007825032230
         H           -0.517473553198    -0.366710630493     0.898261000000     1.007825032230
         H           -0.517473553198    -0.366710630493    -0.898261000000     1.007825032230
         H            1.038363446802    -0.366712624997     0.000000000000     1.007825032230

  Running in cs symmetry.

  Rotational constants: A =      5.18259  B =      5.18257  C =      5.18256 [cm^-1]
  Rotational constants: A = 155370.08185  B = 155369.41735  C = 155369.26850 [MHz]
  Nuclear repulsion =   13.311543270598280

  Charge       = 0
  Multiplicity = 1
  Electrons    = 10
  Nalpha       = 5
  Nbeta        = 5

  ==> Algorithm <==

  SCF Algorithm Type is PK.
  DIIS enabled.
  MOM disabled.
  Fractional occupation disabled.
  Guess Type is SAD.
  Energy threshold   = 1.00e-08
  Density threshold  = 1.00e-08
  Integral threshold = 0.00e+00

  ==> Primary Basis <==

  Basis Set: CC-PVDZ
    Blend: CC-PVDZ
    Number of shells: 18
    Number of basis function: 34
    Number of Cartesian functions: 35
    Spherical Harmonics?: true
    Max angular momentum: 2

  ==> DFT Potential <==

   => Composite Functional: B3LYP <= 

    B3LYP Hyb-GGA Exchange-Correlation Functional

    P. J. Stephens, F. J. Devlin, C. F. Chabalowski, and M. J. Frisch, J. Phys. Chem. 98, 11623 (1994)

    Deriv               =              1
    GGA                 =           TRUE
    Meta                =          FALSE

    Exchange Hybrid     =           TRUE
    MP2 Hybrid          =          FALSE

   => Exchange Functionals <=

    0.0800   Slater exchange
    0.7200         Becke 88

   => Exact (HF) Exchange <=

    0.2000               HF 

   => Correlation Functionals <=

    0.1900   Vosko, Wilk & Nusair (VWN5_RPA)
    0.8100   Lee, Yang & Parr

   => Molecular Quadrature <=

    Radial Scheme          =       TREUTLER
    Pruning Scheme         =           FLAT
    Nuclear Scheme         =       TREUTLER

    BS radius alpha        =              1
    Pruning alpha          =              1
    Radial Points          =             75
    Spherical Points       =            302
    Total Points           =         111418
    Total Blocks           =            911
    Max Points             =            256
    Max Functions          =             34

  ==> Pre-Iterations <==

   -------------------------------------------------------
    Irrep   Nso     Nmo     Nalpha   Nbeta   Ndocc  Nsocc
   -------------------------------------------------------
     A'        23      23       0       0       0       0
     A"        11      11       0       0       0       0
   -------------------------------------------------------
    Total      34      34       5       5       5       0
   -------------------------------------------------------

  ==> Integral Setup <==

  Using in-core PK algorithm.
   Calculation information:
      Number of atoms:                   5
      Number of AO shells:              18
      Number of primitives:             42
      Number of atomic orbitals:        35
      Number of basis functions:        34

      Integral cutoff                 1.00e-12
      Number of threads:                 1

  Performing in-core PK
  Using 354620 doubles for integral storage.
  We computed 14706 shell quartets total.
  Whereas there are 14706 unique shell quartets.

  ==> DiskJK: Disk-Based J/K Matrices <==

    J tasked:                  Yes
    K tasked:                  Yes
    wK tasked:                  No
    Memory [MiB]:              605
    Schwarz Cutoff:          1E-12

    OpenMP threads:              1

  Cached 100.0% of DFT collocation blocks in 0.107 [GiB].

  Minimum eigenvalue in the overlap matrix is 2.3528709580E-02.
  Using Symmetric Orthogonalization.

  SCF Guess: Superposition of Atomic Densities via on-the-fly atomic UHF.

  ==> Iterations <==

                        Total Energy        Delta E     RMS |[F,P]|

   @RKS iter SAD:   -40.07279182872314   -4.00728e+01   0.00000e+00 
   @RKS iter   1:   -40.32204213301296   -2.49250e-01   2.37536e-02 DIIS
   @RKS iter   2:   -40.26124028869111    6.08018e-02   2.55349e-02 DIIS
   @RKS iter   3:   -40.51611451717977   -2.54874e-01   7.25181e-04 DIIS
   @RKS iter   4:   -40.51634586402799   -2.31347e-04   3.60310e-05 DIIS
   @RKS iter   5:   -40.51634628760062   -4.23573e-07   2.66969e-06 DIIS
   @RKS iter   6:   -40.51634628985288   -2.25226e-09   2.71886e-07 DIIS
   @RKS iter   7:   -40.51634628987932   -2.64393e-11   6.67767e-08 DIIS
   @RKS iter   8:   -40.51634628988113   -1.81188e-12   1.93400e-09 DIIS
  Energy and wave function converged.


  ==> Post-Iterations <==

    Orbital Energies [Eh]
    ---------------------

    Doubly Occupied:                                                      

       1Ap   -10.174732     2Ap    -0.690216     1App   -0.388744  
       3Ap    -0.388539     4Ap    -0.387984  

    Virtual:                                                              

       5Ap     0.072970     6Ap     0.142572     7Ap     0.142868  
       2App    0.142976     8Ap     0.413625     9Ap     0.413748  
       3App    0.413793    10Ap     0.649322    11Ap     0.649983  
       4App    0.650227    12Ap     0.676821     5App    0.900811  
      13Ap     0.900811    14Ap     1.041467     6App    1.414540  
       7App    1.414717    15Ap     1.414783    16Ap     1.609667  
      17Ap     1.609999     8App    1.610118    18Ap     1.919160  
      19Ap     1.920773     9App    1.921372    20Ap     2.232759  
      10App    2.232762    21Ap     2.390892    22Ap     2.425375  
      23Ap     2.427130    11App    2.427768  

    Final Occupation by Irrep:
             Ap   App 
    DOCC [     4,    1 ]

  @RKS Final Energy:   -40.51634628988113

   => Energetics <=

    Nuclear Repulsion Energy =             13.3115432705982801
    One-Electron Energy =                 -79.5829009636856881
    Two-Electron Energy =                  31.3332349049665666
    DFT Exchange-Correlation Energy =      -5.5782235017602844
    Empirical Dispersion Energy =           0.0000000000000000
    VV10 Nonlocal Energy =                  0.0000000000000000
    Total Energy =                        -40.5163462898811275

Computation Completed


Properties will be evaluated at   0.000000,   0.000000,   0.000000 [a0]

Properties computed using the SCF density matrix

  Nuclear Dipole Moment: [e a0]
     X:     0.0043      Y:     0.0000      Z:     0.0000

  Electronic Dipole Moment: [e a0]
     X:    -0.0043      Y:    -0.0000      Z:     0.0000

  Dipole Moment: [e a0]
     X:    -0.0000      Y:     0.0000      Z:     0.0000     Total:     0.0000

  Dipole Moment: [D]
     X:    -0.0000      Y:     0.0000      Z:     0.0000     Total:     0.0000


*** tstop() called on blueslogin2 at Fri Aug 23 15:34:35 2019
Module time:
	user time   =       3.61 seconds =       0.06 minutes
	system time =       0.13 seconds =       0.00 minutes
	total time  =          4 seconds =       0.07 minutes
Total time:
	user time   =      13.02 seconds =       0.22 minutes
	system time =       0.74 seconds =       0.01 minutes
	total time  =         15 seconds =       0.25 minutes

*** tstart() called on blueslogin2
*** at Fri Aug 23 15:34:35 2019


         ------------------------------------------------------------
                                   SCF GRAD                          
                          Rob Parrish, Justin Turney,                
                       Andy Simmonett, and Alex Sokolov              
         ------------------------------------------------------------

  ==> Geometry <==

    Molecular point group: cs
    Full point group: Cs

    Geometry (in Angstrom), charge = 0, multiplicity = 1:

       Center              X                  Y                   Z               Mass       
    ------------   -----------------  -----------------  -----------------  -----------------
         C           -0.000382703250    -0.000000628661     0.000000000000    12.000000000000
         H            0.001140441621     1.100141371339     0.000000000000     1.007825032230
         H           -0.517473553198    -0.366710630493     0.898261000000     1.007825032230
         H           -0.517473553198    -0.366710630493    -0.898261000000     1.007825032230
         H            1.038363446802    -0.366712624997     0.000000000000     1.007825032230

  Nuclear repulsion =   13.311543270598280

  ==> Basis Set <==

  Basis Set: CC-PVDZ
    Blend: CC-PVDZ
    Number of shells: 18
    Number of basis function: 34
    Number of Cartesian functions: 35
    Spherical Harmonics?: true
    Max angular momentum: 2

  ==> DirectJKGrad: Integral-Direct SCF Gradients <==

    Gradient:                    1
    J tasked:                  Yes
    K tasked:                  Yes
    wK tasked:                  No
    Integrals threads:           1
    Schwarz Cutoff:          0E+00

  ==> DFT Potential <==

   => Composite Functional: B3LYP <= 

    B3LYP Hyb-GGA Exchange-Correlation Functional

    P. J. Stephens, F. J. Devlin, C. F. Chabalowski, and M. J. Frisch, J. Phys. Chem. 98, 11623 (1994)

    Deriv               =              1
    GGA                 =           TRUE
    Meta                =          FALSE

    Exchange Hybrid     =           TRUE
    MP2 Hybrid          =          FALSE

   => Exchange Functionals <=

    0.0800   Slater exchange
    0.7200         Becke 88

   => Exact (HF) Exchange <=

    0.2000               HF 

   => Correlation Functionals <=

    0.1900   Vosko, Wilk & Nusair (VWN5_RPA)
    0.8100   Lee, Yang & Parr

   => Molecular Quadrature <=

    Radial Scheme          =       TREUTLER
    Pruning Scheme         =           FLAT
    Nuclear Scheme         =       TREUTLER

    BS radius alpha        =              1
    Pruning alpha          =              1
    Radial Points          =             75
    Spherical Points       =            302
    Total Points           =         111418
    Total Blocks           =            911
    Max Points             =            256
    Max Functions          =             34


  -Total Gradient:
     Atom            X                  Y                   Z
    ------   -----------------  -----------------  -----------------
       1       -0.001554890254    -0.000003761145     0.000000000000
       2        0.000124571814     0.000147014734     0.000000000000
       3        0.000231841658     0.000077167534    -0.000187723547
       4        0.000231841658     0.000077167534     0.000187723547
       5        0.000965477397    -0.000297729105     0.000000000000


*** tstop() called on blueslogin2 at Fri Aug 23 15:34:36 2019
Module time:
	user time   =       0.83 seconds =       0.01 minutes
	system time =       0.01 seconds =       0.00 minutes
	total time  =          1 seconds =       0.02 minutes
Total time:
	user time   =      13.85 seconds =       0.23 minutes
	system time =       0.75 seconds =       0.01 minutes
	total time  =         16 seconds =       0.27 minutes

  //>>>>>>>>>>>>>>>>>>>>>>>>>>>>>>>>>>>//
  //    Loading displacement 3 of 16   //
  //<<<<<<<<<<<<<<<<<<<<<<<<<<<<<<<<<<<//
gradient() will perform analytic gradient computation.

*** tstart() called on blueslogin2
*** at Fri Aug 23 15:34:36 2019

   => Loading Basis Set <=

    Name: CC-PVDZ
    Role: ORBITAL
    Keyword: BASIS
    atoms 1   entry C          line   138 file /home/elliott/miniconda2/envs/pacc-env-mini/share/psi4/basis/cc-pvdz.gbs 
    atoms 2-5 entry H          line    22 file /home/elliott/miniconda2/envs/pacc-env-mini/share/psi4/basis/cc-pvdz.gbs 


         ---------------------------------------------------------
                                   SCF
               by Justin Turney, Rob Parrish, Andy Simmonett
                          and Daniel G. A. Smith
                              RKS Reference
                        1 Threads,    953 MiB Core
         ---------------------------------------------------------

  ==> Geometry <==

    Molecular point group: cs
    Full point group: Cs

    Geometry (in Angstrom), charge = 0, multiplicity = 1:

       Center              X                  Y                   Z               Mass       
    ------------   -----------------  -----------------  -----------------  -----------------
         C            0.000383331910    -0.000000628661     0.000000000000    12.000000000000
         H           -0.001139812960     1.100141371339     0.000000000000     1.007825032230
         H           -0.519753818142    -0.366710626829     0.898261000000     1.007825032230
         H           -0.519753818142    -0.366710626829    -0.898261000000     1.007825032230
         H            1.036083181858    -0.366712632325     0.000000000000     1.007825032230

  Running in cs symmetry.

  Rotational constants: A =      5.18259  B =      5.18257  C =      5.18256 [cm^-1]
  Rotational constants: A = 155370.08188  B = 155369.41625  C = 155369.26737 [MHz]
  Nuclear repulsion =   13.311543261024374

  Charge       = 0
  Multiplicity = 1
  Electrons    = 10
  Nalpha       = 5
  Nbeta        = 5

  ==> Algorithm <==

  SCF Algorithm Type is PK.
  DIIS enabled.
  MOM disabled.
  Fractional occupation disabled.
  Guess Type is SAD.
  Energy threshold   = 1.00e-08
  Density threshold  = 1.00e-08
  Integral threshold = 0.00e+00

  ==> Primary Basis <==

  Basis Set: CC-PVDZ
    Blend: CC-PVDZ
    Number of shells: 18
    Number of basis function: 34
    Number of Cartesian functions: 35
    Spherical Harmonics?: true
    Max angular momentum: 2

  ==> DFT Potential <==

   => Composite Functional: B3LYP <= 

    B3LYP Hyb-GGA Exchange-Correlation Functional

    P. J. Stephens, F. J. Devlin, C. F. Chabalowski, and M. J. Frisch, J. Phys. Chem. 98, 11623 (1994)

    Deriv               =              1
    GGA                 =           TRUE
    Meta                =          FALSE

    Exchange Hybrid     =           TRUE
    MP2 Hybrid          =          FALSE

   => Exchange Functionals <=

    0.0800   Slater exchange
    0.7200         Becke 88

   => Exact (HF) Exchange <=

    0.2000               HF 

   => Correlation Functionals <=

    0.1900   Vosko, Wilk & Nusair (VWN5_RPA)
    0.8100   Lee, Yang & Parr

   => Molecular Quadrature <=

    Radial Scheme          =       TREUTLER
    Pruning Scheme         =           FLAT
    Nuclear Scheme         =       TREUTLER

    BS radius alpha        =              1
    Pruning alpha          =              1
    Radial Points          =             75
    Spherical Points       =            302
    Total Points           =         111416
    Total Blocks           =            915
    Max Points             =            256
    Max Functions          =             34

  ==> Pre-Iterations <==

   -------------------------------------------------------
    Irrep   Nso     Nmo     Nalpha   Nbeta   Ndocc  Nsocc
   -------------------------------------------------------
     A'        23      23       0       0       0       0
     A"        11      11       0       0       0       0
   -------------------------------------------------------
    Total      34      34       5       5       5       0
   -------------------------------------------------------

  ==> Integral Setup <==

  Using in-core PK algorithm.
   Calculation information:
      Number of atoms:                   5
      Number of AO shells:              18
      Number of primitives:             42
      Number of atomic orbitals:        35
      Number of basis functions:        34

      Integral cutoff                 1.00e-12
      Number of threads:                 1

  Performing in-core PK
  Using 354620 doubles for integral storage.
  We computed 14706 shell quartets total.
  Whereas there are 14706 unique shell quartets.

  ==> DiskJK: Disk-Based J/K Matrices <==

    J tasked:                  Yes
    K tasked:                  Yes
    wK tasked:                  No
    Memory [MiB]:              605
    Schwarz Cutoff:          1E-12

    OpenMP threads:              1

  Cached 100.0% of DFT collocation blocks in 0.107 [GiB].

  Minimum eigenvalue in the overlap matrix is 2.3528709414E-02.
  Using Symmetric Orthogonalization.

  SCF Guess: Superposition of Atomic Densities via on-the-fly atomic UHF.

  ==> Iterations <==

                        Total Energy        Delta E     RMS |[F,P]|

   @RKS iter SAD:   -40.07279175075652   -4.00728e+01   0.00000e+00 
   @RKS iter   1:   -40.32204209563538   -2.49250e-01   2.37536e-02 DIIS
   @RKS iter   2:   -40.26124023580233    6.08019e-02   2.55349e-02 DIIS
   @RKS iter   3:   -40.51611448984886   -2.54874e-01   7.25181e-04 DIIS
   @RKS iter   4:   -40.51634583676421   -2.31347e-04   3.60310e-05 DIIS
   @RKS iter   5:   -40.51634626033599   -4.23572e-07   2.66960e-06 DIIS
   @RKS iter   6:   -40.51634626258809   -2.25210e-09   2.71575e-07 DIIS
   @RKS iter   7:   -40.51634626261450   -2.64109e-11   6.66700e-08 DIIS
   @RKS iter   8:   -40.51634626261627   -1.76215e-12   1.93283e-09 DIIS
  Energy and wave function converged.


  ==> Post-Iterations <==

    Orbital Energies [Eh]
    ---------------------

    Doubly Occupied:                                                      

       1Ap   -10.174732     2Ap    -0.690216     3Ap    -0.388862  
       4Ap    -0.388304     1App   -0.388101  

    Virtual:                                                              

       5Ap     0.072970     2App    0.142635     6Ap     0.142743  
       7Ap     0.143039     3App    0.413652     8Ap     0.413696  
       9Ap     0.413818     4App    0.649468    10Ap     0.649705  
      11Ap     0.650359    12Ap     0.676821     5App    0.900811  
      13Ap     0.900811    14Ap     1.041467    15Ap     1.414576  
       6App    1.414641     7App    1.414822     8App    1.609739  
      16Ap     1.609860    17Ap     1.610185     9App    1.919499  
      18Ap     1.920088    19Ap     1.921718    20Ap     2.232759  
      10App    2.232762    21Ap     2.390899    11App    2.425650  
      22Ap     2.426351    23Ap     2.428265  

    Final Occupation by Irrep:
             Ap   App 
    DOCC [     4,    1 ]

  @RKS Final Energy:   -40.51634626261627

   => Energetics <=

    Nuclear Repulsion Energy =             13.3115432610243740
    One-Electron Energy =                 -79.5829009251005601
    Two-Electron Energy =                  31.3332349000684260
    DFT Exchange-Correlation Energy =      -5.5782234986084989
    Empirical Dispersion Energy =           0.0000000000000000
    VV10 Nonlocal Energy =                  0.0000000000000000
    Total Energy =                        -40.5163462626162669

Computation Completed


Properties will be evaluated at   0.000000,   0.000000,   0.000000 [a0]

Properties computed using the SCF density matrix

  Nuclear Dipole Moment: [e a0]
     X:    -0.0043      Y:     0.0000      Z:     0.0000

  Electronic Dipole Moment: [e a0]
     X:     0.0043      Y:    -0.0000      Z:     0.0000

  Dipole Moment: [e a0]
     X:     0.0000      Y:     0.0000      Z:     0.0000     Total:     0.0000

  Dipole Moment: [D]
     X:     0.0000      Y:     0.0000      Z:     0.0000     Total:     0.0000


*** tstop() called on blueslogin2 at Fri Aug 23 15:34:40 2019
Module time:
	user time   =       3.82 seconds =       0.06 minutes
	system time =       0.12 seconds =       0.00 minutes
	total time  =          4 seconds =       0.07 minutes
Total time:
	user time   =      17.68 seconds =       0.29 minutes
	system time =       0.87 seconds =       0.01 minutes
	total time  =         20 seconds =       0.33 minutes

*** tstart() called on blueslogin2
*** at Fri Aug 23 15:34:40 2019


         ------------------------------------------------------------
                                   SCF GRAD                          
                          Rob Parrish, Justin Turney,                
                       Andy Simmonett, and Alex Sokolov              
         ------------------------------------------------------------

  ==> Geometry <==

    Molecular point group: cs
    Full point group: Cs

    Geometry (in Angstrom), charge = 0, multiplicity = 1:

       Center              X                  Y                   Z               Mass       
    ------------   -----------------  -----------------  -----------------  -----------------
         C            0.000383331910    -0.000000628661     0.000000000000    12.000000000000
         H           -0.001139812960     1.100141371339     0.000000000000     1.007825032230
         H           -0.519753818142    -0.366710626829     0.898261000000     1.007825032230
         H           -0.519753818142    -0.366710626829    -0.898261000000     1.007825032230
         H            1.036083181858    -0.366712632325     0.000000000000     1.007825032230

  Nuclear repulsion =   13.311543261024374

  ==> Basis Set <==

  Basis Set: CC-PVDZ
    Blend: CC-PVDZ
    Number of shells: 18
    Number of basis function: 34
    Number of Cartesian functions: 35
    Spherical Harmonics?: true
    Max angular momentum: 2

  ==> DirectJKGrad: Integral-Direct SCF Gradients <==

    Gradient:                    1
    J tasked:                  Yes
    K tasked:                  Yes
    wK tasked:                  No
    Integrals threads:           1
    Schwarz Cutoff:          0E+00

  ==> DFT Potential <==

   => Composite Functional: B3LYP <= 

    B3LYP Hyb-GGA Exchange-Correlation Functional

    P. J. Stephens, F. J. Devlin, C. F. Chabalowski, and M. J. Frisch, J. Phys. Chem. 98, 11623 (1994)

    Deriv               =              1
    GGA                 =           TRUE
    Meta                =          FALSE

    Exchange Hybrid     =           TRUE
    MP2 Hybrid          =          FALSE

   => Exchange Functionals <=

    0.0800   Slater exchange
    0.7200         Becke 88

   => Exact (HF) Exchange <=

    0.2000               HF 

   => Correlation Functionals <=

    0.1900   Vosko, Wilk & Nusair (VWN5_RPA)
    0.8100   Lee, Yang & Parr

   => Molecular Quadrature <=

    Radial Scheme          =       TREUTLER
    Pruning Scheme         =           FLAT
    Nuclear Scheme         =       TREUTLER

    BS radius alpha        =              1
    Pruning alpha          =              1
    Radial Points          =             75
    Spherical Points       =            302
    Total Points           =         111416
    Total Blocks           =            915
    Max Points             =            256
    Max Functions          =             34


  -Total Gradient:
     Atom            X                  Y                   Z
    ------   -----------------  -----------------  -----------------
       1        0.001561653566    -0.000003652365     0.000000000000
       2       -0.000123983859     0.000147015638     0.000000000000
       3       -0.000370453796    -0.000172965787     0.000424994566
       4       -0.000370453796    -0.000172965787    -0.000424994566
       5       -0.000698073868     0.000202544884     0.000000000000


*** tstop() called on blueslogin2 at Fri Aug 23 15:34:41 2019
Module time:
	user time   =       0.84 seconds =       0.01 minutes
	system time =       0.01 seconds =       0.00 minutes
	total time  =          1 seconds =       0.02 minutes
Total time:
	user time   =      18.52 seconds =       0.31 minutes
	system time =       0.88 seconds =       0.01 minutes
	total time  =         21 seconds =       0.35 minutes

  //>>>>>>>>>>>>>>>>>>>>>>>>>>>>>>>>>>>//
  //    Loading displacement 4 of 16   //
  //<<<<<<<<<<<<<<<<<<<<<<<<<<<<<<<<<<<//
gradient() will perform analytic gradient computation.

*** tstart() called on blueslogin2
*** at Fri Aug 23 15:34:41 2019

   => Loading Basis Set <=

    Name: CC-PVDZ
    Role: ORBITAL
    Keyword: BASIS
    atoms 1   entry C          line   138 file /home/elliott/miniconda2/envs/pacc-env-mini/share/psi4/basis/cc-pvdz.gbs 
    atoms 2-5 entry H          line    22 file /home/elliott/miniconda2/envs/pacc-env-mini/share/psi4/basis/cc-pvdz.gbs 


         ---------------------------------------------------------
                                   SCF
               by Justin Turney, Rob Parrish, Andy Simmonett
                          and Daniel G. A. Smith
                              RKS Reference
                        1 Threads,    953 MiB Core
         ---------------------------------------------------------

  ==> Geometry <==

    Molecular point group: cs
    Full point group: Cs

    Geometry (in Angstrom), charge = 0, multiplicity = 1:

       Center              X                  Y                   Z               Mass       
    ------------   -----------------  -----------------  -----------------  -----------------
         C            0.000000314330    -0.000383646241     0.000000000000    12.000000000000
         H            0.000000312387     1.101281502516     0.000000000000     1.007825032230
         H           -0.518613685022    -0.365570498400     0.898261000000     1.007825032230
         H           -0.518613685022    -0.365570498400    -0.898261000000     1.007825032230
         H            1.037223314978    -0.365572495652     0.000000000000     1.007825032230

  Running in cs symmetry.

  Rotational constants: A =      5.18258  B =      5.18257  C =      5.18257 [cm^-1]
  Rotational constants: A = 155369.74718  B = 155369.60152  C = 155369.41570 [MHz]
  Nuclear repulsion =   13.311543227145094

  Charge       = 0
  Multiplicity = 1
  Electrons    = 10
  Nalpha       = 5
  Nbeta        = 5

  ==> Algorithm <==

  SCF Algorithm Type is PK.
  DIIS enabled.
  MOM disabled.
  Fractional occupation disabled.
  Guess Type is SAD.
  Energy threshold   = 1.00e-08
  Density threshold  = 1.00e-08
  Integral threshold = 0.00e+00

  ==> Primary Basis <==

  Basis Set: CC-PVDZ
    Blend: CC-PVDZ
    Number of shells: 18
    Number of basis function: 34
    Number of Cartesian functions: 35
    Spherical Harmonics?: true
    Max angular momentum: 2

  ==> DFT Potential <==

   => Composite Functional: B3LYP <= 

    B3LYP Hyb-GGA Exchange-Correlation Functional

    P. J. Stephens, F. J. Devlin, C. F. Chabalowski, and M. J. Frisch, J. Phys. Chem. 98, 11623 (1994)

    Deriv               =              1
    GGA                 =           TRUE
    Meta                =          FALSE

    Exchange Hybrid     =           TRUE
    MP2 Hybrid          =          FALSE

   => Exchange Functionals <=

    0.0800   Slater exchange
    0.7200         Becke 88

   => Exact (HF) Exchange <=

    0.2000               HF 

   => Correlation Functionals <=

    0.1900   Vosko, Wilk & Nusair (VWN5_RPA)
    0.8100   Lee, Yang & Parr

   => Molecular Quadrature <=

    Radial Scheme          =       TREUTLER
    Pruning Scheme         =           FLAT
    Nuclear Scheme         =       TREUTLER

    BS radius alpha        =              1
    Pruning alpha          =              1
    Radial Points          =             75
    Spherical Points       =            302
    Total Points           =         111410
    Total Blocks           =            919
    Max Points             =            254
    Max Functions          =             34

  ==> Pre-Iterations <==

   -------------------------------------------------------
    Irrep   Nso     Nmo     Nalpha   Nbeta   Ndocc  Nsocc
   -------------------------------------------------------
     A'        23      23       0       0       0       0
     A"        11      11       0       0       0       0
   -------------------------------------------------------
    Total      34      34       5       5       5       0
   -------------------------------------------------------

  ==> Integral Setup <==

  Using in-core PK algorithm.
   Calculation information:
      Number of atoms:                   5
      Number of AO shells:              18
      Number of primitives:             42
      Number of atomic orbitals:        35
      Number of basis functions:        34

      Integral cutoff                 1.00e-12
      Number of threads:                 1

  Performing in-core PK
  Using 354620 doubles for integral storage.
  We computed 14706 shell quartets total.
  Whereas there are 14706 unique shell quartets.

  ==> DiskJK: Disk-Based J/K Matrices <==

    J tasked:                  Yes
    K tasked:                  Yes
    wK tasked:                  No
    Memory [MiB]:              605
    Schwarz Cutoff:          1E-12

    OpenMP threads:              1

  Cached 100.0% of DFT collocation blocks in 0.107 [GiB].

  Minimum eigenvalue in the overlap matrix is 2.3528709587E-02.
  Using Symmetric Orthogonalization.

  SCF Guess: Superposition of Atomic Densities via on-the-fly atomic UHF.

  ==> Iterations <==

                        Total Energy        Delta E     RMS |[F,P]|

   @RKS iter SAD:   -40.07279102746872   -4.00728e+01   0.00000e+00 
   @RKS iter   1:   -40.32204188570771   -2.49251e-01   2.37536e-02 DIIS
   @RKS iter   2:   -40.26123998092440    6.08019e-02   2.55349e-02 DIIS
   @RKS iter   3:   -40.51611428324804   -2.54874e-01   7.25181e-04 DIIS
   @RKS iter   4:   -40.51634563016904   -2.31347e-04   3.60309e-05 DIIS
   @RKS iter   5:   -40.51634605374004   -4.23571e-07   2.66993e-06 DIIS
   @RKS iter   6:   -40.51634605599261   -2.25257e-09   2.72681e-07 DIIS
   @RKS iter   7:   -40.51634605601931   -2.67022e-11   6.69394e-08 DIIS
   @RKS iter   8:   -40.51634605602104   -1.73372e-12   1.93406e-09 DIIS
  Energy and wave function converged.


  ==> Post-Iterations <==

    Orbital Energies [Eh]
    ---------------------

    Doubly Occupied:                                                      

       1Ap   -10.174732     2Ap    -0.690216     3Ap    -0.388650  
       1App   -0.388649     4Ap    -0.387967  

    Virtual:                                                              

       5Ap     0.072970     6Ap     0.142564     7Ap     0.142926  
       2App    0.142927     8Ap     0.413622     3App    0.413772  
       9Ap     0.413773    10Ap     0.649302    11Ap     0.650115  
       4App    0.650115    12Ap     0.676821     5App    0.900811  
      13Ap     0.900811    14Ap     1.041467     6App    1.414534  
      15Ap     1.414752     7App    1.414753    16Ap     1.609660  
      17Ap     1.610061     8App    1.610062    18Ap     1.919109  
       9App    1.921097    19Ap     1.921099    10App    2.232761  
      20Ap     2.232763    21Ap     2.390890    22Ap     2.425358  
      23Ap     2.427458    11App    2.427459  

    Final Occupation by Irrep:
             Ap   App 
    DOCC [     4,    1 ]

  @RKS Final Energy:   -40.51634605602104

   => Energetics <=

    Nuclear Repulsion Energy =             13.3115432271450942
    One-Electron Energy =                 -79.5829006104600296
    Two-Electron Energy =                  31.3332347694871629
    DFT Exchange-Correlation Energy =      -5.5782234421932664
    Empirical Dispersion Energy =           0.0000000000000000
    VV10 Nonlocal Energy =                  0.0000000000000000
    Total Energy =                        -40.5163460560210353

Computation Completed


Properties will be evaluated at   0.000000,   0.000000,   0.000000 [a0]

Properties computed using the SCF density matrix

  Nuclear Dipole Moment: [e a0]
     X:    -0.0000      Y:     0.0043      Z:     0.0000

  Electronic Dipole Moment: [e a0]
     X:     0.0000      Y:    -0.0043      Z:     0.0000

  Dipole Moment: [e a0]
     X:    -0.0000      Y:    -0.0000      Z:     0.0000     Total:     0.0000

  Dipole Moment: [D]
     X:    -0.0000      Y:    -0.0000      Z:     0.0000     Total:     0.0000


*** tstop() called on blueslogin2 at Fri Aug 23 15:34:44 2019
Module time:
	user time   =       3.61 seconds =       0.06 minutes
	system time =       0.08 seconds =       0.00 minutes
	total time  =          3 seconds =       0.05 minutes
Total time:
	user time   =      22.14 seconds =       0.37 minutes
	system time =       0.96 seconds =       0.02 minutes
	total time  =         24 seconds =       0.40 minutes

*** tstart() called on blueslogin2
*** at Fri Aug 23 15:34:44 2019


         ------------------------------------------------------------
                                   SCF GRAD                          
                          Rob Parrish, Justin Turney,                
                       Andy Simmonett, and Alex Sokolov              
         ------------------------------------------------------------

  ==> Geometry <==

    Molecular point group: cs
    Full point group: Cs

    Geometry (in Angstrom), charge = 0, multiplicity = 1:

       Center              X                  Y                   Z               Mass       
    ------------   -----------------  -----------------  -----------------  -----------------
         C            0.000000314330    -0.000383646241     0.000000000000    12.000000000000
         H            0.000000312387     1.101281502516     0.000000000000     1.007825032230
         H           -0.518613685022    -0.365570498400     0.898261000000     1.007825032230
         H           -0.518613685022    -0.365570498400    -0.898261000000     1.007825032230
         H            1.037223314978    -0.365572495652     0.000000000000     1.007825032230

  Nuclear repulsion =   13.311543227145094

  ==> Basis Set <==

  Basis Set: CC-PVDZ
    Blend: CC-PVDZ
    Number of shells: 18
    Number of basis function: 34
    Number of Cartesian functions: 35
    Spherical Harmonics?: true
    Max angular momentum: 2

  ==> DirectJKGrad: Integral-Direct SCF Gradients <==

    Gradient:                    1
    J tasked:                  Yes
    K tasked:                  Yes
    wK tasked:                  No
    Integrals threads:           1
    Schwarz Cutoff:          0E+00

  ==> DFT Potential <==

   => Composite Functional: B3LYP <= 

    B3LYP Hyb-GGA Exchange-Correlation Functional

    P. J. Stephens, F. J. Devlin, C. F. Chabalowski, and M. J. Frisch, J. Phys. Chem. 98, 11623 (1994)

    Deriv               =              1
    GGA                 =           TRUE
    Meta                =          FALSE

    Exchange Hybrid     =           TRUE
    MP2 Hybrid          =          FALSE

   => Exchange Functionals <=

    0.0800   Slater exchange
    0.7200         Becke 88

   => Exact (HF) Exchange <=

    0.2000               HF 

   => Correlation Functionals <=

    0.1900   Vosko, Wilk & Nusair (VWN5_RPA)
    0.8100   Lee, Yang & Parr

   => Molecular Quadrature <=

    Radial Scheme          =       TREUTLER
    Pruning Scheme         =           FLAT
    Nuclear Scheme         =       TREUTLER

    BS radius alpha        =              1
    Pruning alpha          =              1
    Radial Points          =             75
    Spherical Points       =            302
    Total Points           =         111410
    Total Blocks           =            919
    Max Points             =            254
    Max Functions          =             34


  -Total Gradient:
     Atom            X                  Y                   Z
    ------   -----------------  -----------------  -----------------
       1        0.000000093123    -0.001554487724     0.000000000000
       2       -0.000000091333     0.001062053718     0.000000000000
       3        0.000056240099     0.000163766887    -0.000097558016
       4        0.000056240099     0.000163766887     0.000097558016
       5       -0.000112641616     0.000163582515     0.000000000000


*** tstop() called on blueslogin2 at Fri Aug 23 15:34:45 2019
Module time:
	user time   =       0.84 seconds =       0.01 minutes
	system time =       0.01 seconds =       0.00 minutes
	total time  =          1 seconds =       0.02 minutes
Total time:
	user time   =      22.98 seconds =       0.38 minutes
	system time =       0.97 seconds =       0.02 minutes
	total time  =         25 seconds =       0.42 minutes

  //>>>>>>>>>>>>>>>>>>>>>>>>>>>>>>>>>>>//
  //    Loading displacement 5 of 16   //
  //<<<<<<<<<<<<<<<<<<<<<<<<<<<<<<<<<<<//
gradient() will perform analytic gradient computation.

*** tstart() called on blueslogin2
*** at Fri Aug 23 15:34:45 2019

   => Loading Basis Set <=

    Name: CC-PVDZ
    Role: ORBITAL
    Keyword: BASIS
    atoms 1   entry C          line   138 file /home/elliott/miniconda2/envs/pacc-env-mini/share/psi4/basis/cc-pvdz.gbs 
    atoms 2-5 entry H          line    22 file /home/elliott/miniconda2/envs/pacc-env-mini/share/psi4/basis/cc-pvdz.gbs 


         ---------------------------------------------------------
                                   SCF
               by Justin Turney, Rob Parrish, Andy Simmonett
                          and Daniel G. A. Smith
                              RKS Reference
                        1 Threads,    953 MiB Core
         ---------------------------------------------------------

  ==> Geometry <==

    Molecular point group: cs
    Full point group: Cs

    Geometry (in Angstrom), charge = 0, multiplicity = 1:

       Center              X                  Y                   Z               Mass       
    ------------   -----------------  -----------------  -----------------  -----------------
         C            0.000000314330     0.000382388919     0.000000000000    12.000000000000
         H            0.000000316274     1.099001240163     0.000000000000     1.007825032230
         H           -0.518613686317    -0.367850758921     0.898261000000     1.007825032230
         H           -0.518613686317    -0.367850758921    -0.898261000000     1.007825032230
         H            1.037223313683    -0.367852761669     0.000000000000     1.007825032230

  Running in cs symmetry.

  Rotational constants: A =      5.18258  B =      5.18257  C =      5.18257 [cm^-1]
  Rotational constants: A = 155369.74927  B = 155369.60162  C = 155369.41790 [MHz]
  Nuclear repulsion =   13.311543304248062

  Charge       = 0
  Multiplicity = 1
  Electrons    = 10
  Nalpha       = 5
  Nbeta        = 5

  ==> Algorithm <==

  SCF Algorithm Type is PK.
  DIIS enabled.
  MOM disabled.
  Fractional occupation disabled.
  Guess Type is SAD.
  Energy threshold   = 1.00e-08
  Density threshold  = 1.00e-08
  Integral threshold = 0.00e+00

  ==> Primary Basis <==

  Basis Set: CC-PVDZ
    Blend: CC-PVDZ
    Number of shells: 18
    Number of basis function: 34
    Number of Cartesian functions: 35
    Spherical Harmonics?: true
    Max angular momentum: 2

  ==> DFT Potential <==

   => Composite Functional: B3LYP <= 

    B3LYP Hyb-GGA Exchange-Correlation Functional

    P. J. Stephens, F. J. Devlin, C. F. Chabalowski, and M. J. Frisch, J. Phys. Chem. 98, 11623 (1994)

    Deriv               =              1
    GGA                 =           TRUE
    Meta                =          FALSE

    Exchange Hybrid     =           TRUE
    MP2 Hybrid          =          FALSE

   => Exchange Functionals <=

    0.0800   Slater exchange
    0.7200         Becke 88

   => Exact (HF) Exchange <=

    0.2000               HF 

   => Correlation Functionals <=

    0.1900   Vosko, Wilk & Nusair (VWN5_RPA)
    0.8100   Lee, Yang & Parr

   => Molecular Quadrature <=

    Radial Scheme          =       TREUTLER
    Pruning Scheme         =           FLAT
    Nuclear Scheme         =       TREUTLER

    BS radius alpha        =              1
    Pruning alpha          =              1
    Radial Points          =             75
    Spherical Points       =            302
    Total Points           =         111410
    Total Blocks           =            922
    Max Points             =            256
    Max Functions          =             34

  ==> Pre-Iterations <==

   -------------------------------------------------------
    Irrep   Nso     Nmo     Nalpha   Nbeta   Ndocc  Nsocc
   -------------------------------------------------------
     A'        23      23       0       0       0       0
     A"        11      11       0       0       0       0
   -------------------------------------------------------
    Total      34      34       5       5       5       0
   -------------------------------------------------------

  ==> Integral Setup <==

  Using in-core PK algorithm.
   Calculation information:
      Number of atoms:                   5
      Number of AO shells:              18
      Number of primitives:             42
      Number of atomic orbitals:        35
      Number of basis functions:        34

      Integral cutoff                 1.00e-12
      Number of threads:                 1

  Performing in-core PK
  Using 354620 doubles for integral storage.
  We computed 14706 shell quartets total.
  Whereas there are 14706 unique shell quartets.

  ==> DiskJK: Disk-Based J/K Matrices <==

    J tasked:                  Yes
    K tasked:                  Yes
    wK tasked:                  No
    Memory [MiB]:              605
    Schwarz Cutoff:          1E-12

    OpenMP threads:              1

  Cached 100.0% of DFT collocation blocks in 0.107 [GiB].

  Minimum eigenvalue in the overlap matrix is 2.3528709405E-02.
  Using Symmetric Orthogonalization.

  SCF Guess: Superposition of Atomic Densities via on-the-fly atomic UHF.

  ==> Iterations <==

                        Total Energy        Delta E     RMS |[F,P]|

   @RKS iter SAD:   -40.07279103107602   -4.00728e+01   0.00000e+00 
   @RKS iter   1:   -40.32204188629331   -2.49251e-01   2.37536e-02 DIIS
   @RKS iter   2:   -40.26123998707303    6.08019e-02   2.55349e-02 DIIS
   @RKS iter   3:   -40.51611428666473   -2.54874e-01   7.25181e-04 DIIS
   @RKS iter   4:   -40.51634563352845   -2.31347e-04   3.60308e-05 DIIS
   @RKS iter   5:   -40.51634605709577   -4.23567e-07   2.66929e-06 DIIS
   @RKS iter   6:   -40.51634605934731   -2.25153e-09   2.70773e-07 DIIS
   @RKS iter   7:   -40.51634605937360   -2.62901e-11   6.65019e-08 DIIS
   @RKS iter   8:   -40.51634605937528   -1.68399e-12   1.93281e-09 DIIS
  Energy and wave function converged.


  ==> Post-Iterations <==

    Orbital Energies [Eh]
    ---------------------

    Doubly Occupied:                                                      

       1Ap   -10.174732     2Ap    -0.690216     3Ap    -0.388876  
       4Ap    -0.388195     1App   -0.388195  

    Virtual:                                                              

       5Ap     0.072970     6Ap     0.142685     2App    0.142685  
       7Ap     0.143047     3App    0.413673     8Ap     0.413673  
       9Ap     0.413821    10Ap     0.649578     4App    0.649578  
      11Ap     0.650375    12Ap     0.676822     5App    0.900811  
      13Ap     0.900811    14Ap     1.041467    15Ap     1.414606  
       6App    1.414607     7App    1.414826    16Ap     1.609793  
       8App    1.609794    17Ap     1.610196     9App    1.919773  
      18Ap     1.919775    19Ap     1.921758    10App    2.232761  
      20Ap     2.232763    21Ap     2.390901    22Ap     2.425961  
      11App    2.425962    23Ap     2.428343  

    Final Occupation by Irrep:
             Ap   App 
    DOCC [     4,    1 ]

  @RKS Final Energy:   -40.51634605937528

   => Energetics <=

    Nuclear Repulsion Energy =             13.3115433042480618
    One-Electron Energy =                 -79.5829007726732414
    Two-Electron Energy =                  31.3332348623335122
    DFT Exchange-Correlation Energy =      -5.5782234532836137
    Empirical Dispersion Energy =           0.0000000000000000
    VV10 Nonlocal Energy =                  0.0000000000000000
    Total Energy =                        -40.5163460593752802

Computation Completed


Properties will be evaluated at   0.000000,   0.000000,   0.000000 [a0]

Properties computed using the SCF density matrix

  Nuclear Dipole Moment: [e a0]
     X:    -0.0000      Y:    -0.0043      Z:     0.0000

  Electronic Dipole Moment: [e a0]
     X:     0.0000      Y:     0.0043      Z:     0.0000

  Dipole Moment: [e a0]
     X:     0.0000      Y:     0.0000      Z:     0.0000     Total:     0.0000

  Dipole Moment: [D]
     X:     0.0000      Y:     0.0000      Z:     0.0000     Total:     0.0000


*** tstop() called on blueslogin2 at Fri Aug 23 15:34:49 2019
Module time:
	user time   =       3.66 seconds =       0.06 minutes
	system time =       0.07 seconds =       0.00 minutes
	total time  =          4 seconds =       0.07 minutes
Total time:
	user time   =      26.64 seconds =       0.44 minutes
	system time =       1.04 seconds =       0.02 minutes
	total time  =         29 seconds =       0.48 minutes

*** tstart() called on blueslogin2
*** at Fri Aug 23 15:34:49 2019


         ------------------------------------------------------------
                                   SCF GRAD                          
                          Rob Parrish, Justin Turney,                
                       Andy Simmonett, and Alex Sokolov              
         ------------------------------------------------------------

  ==> Geometry <==

    Molecular point group: cs
    Full point group: Cs

    Geometry (in Angstrom), charge = 0, multiplicity = 1:

       Center              X                  Y                   Z               Mass       
    ------------   -----------------  -----------------  -----------------  -----------------
         C            0.000000314330     0.000382388919     0.000000000000    12.000000000000
         H            0.000000316274     1.099001240163     0.000000000000     1.007825032230
         H           -0.518613686317    -0.367850758921     0.898261000000     1.007825032230
         H           -0.518613686317    -0.367850758921    -0.898261000000     1.007825032230
         H            1.037223313683    -0.367852761669     0.000000000000     1.007825032230

  Nuclear repulsion =   13.311543304248062

  ==> Basis Set <==

  Basis Set: CC-PVDZ
    Blend: CC-PVDZ
    Number of shells: 18
    Number of basis function: 34
    Number of Cartesian functions: 35
    Spherical Harmonics?: true
    Max angular momentum: 2

  ==> DirectJKGrad: Integral-Direct SCF Gradients <==

    Gradient:                    1
    J tasked:                  Yes
    K tasked:                  Yes
    wK tasked:                  No
    Integrals threads:           1
    Schwarz Cutoff:          0E+00

  ==> DFT Potential <==

   => Composite Functional: B3LYP <= 

    B3LYP Hyb-GGA Exchange-Correlation Functional

    P. J. Stephens, F. J. Devlin, C. F. Chabalowski, and M. J. Frisch, J. Phys. Chem. 98, 11623 (1994)

    Deriv               =              1
    GGA                 =           TRUE
    Meta                =          FALSE

    Exchange Hybrid     =           TRUE
    MP2 Hybrid          =          FALSE

   => Exchange Functionals <=

    0.0800   Slater exchange
    0.7200         Becke 88

   => Exact (HF) Exchange <=

    0.2000               HF 

   => Correlation Functionals <=

    0.1900   Vosko, Wilk & Nusair (VWN5_RPA)
    0.8100   Lee, Yang & Parr

   => Molecular Quadrature <=

    Radial Scheme          =       TREUTLER
    Pruning Scheme         =           FLAT
    Nuclear Scheme         =       TREUTLER

    BS radius alpha        =              1
    Pruning alpha          =              1
    Radial Points          =             75
    Spherical Points       =            302
    Total Points           =         111410
    Total Blocks           =            922
    Max Points             =            256
    Max Functions          =             34


  -Total Gradient:
     Atom            X                  Y                   Z
    ------   -----------------  -----------------  -----------------
       1        0.000000132125     0.001562212500     0.000000000000
       2       -0.000000008136    -0.000778373616     0.000000000000
       3       -0.000193902963    -0.000261639695     0.000335688078
       4       -0.000193902963    -0.000261639695    -0.000335688078
       5        0.000387600017    -0.000261932899     0.000000000000


*** tstop() called on blueslogin2 at Fri Aug 23 15:34:50 2019
Module time:
	user time   =       0.84 seconds =       0.01 minutes
	system time =       0.02 seconds =       0.00 minutes
	total time  =          1 seconds =       0.02 minutes
Total time:
	user time   =      27.48 seconds =       0.46 minutes
	system time =       1.06 seconds =       0.02 minutes
	total time  =         30 seconds =       0.50 minutes

  //>>>>>>>>>>>>>>>>>>>>>>>>>>>>>>>>>>>//
  //    Loading displacement 6 of 16   //
  //<<<<<<<<<<<<<<<<<<<<<<<<<<<<<<<<<<<//
gradient() will perform analytic gradient computation.

*** tstart() called on blueslogin2
*** at Fri Aug 23 15:34:50 2019

   => Loading Basis Set <=

    Name: CC-PVDZ
    Role: ORBITAL
    Keyword: BASIS
    atoms 1   entry C          line   138 file /home/elliott/miniconda2/envs/pacc-env-mini/share/psi4/basis/cc-pvdz.gbs 
    atoms 2-5 entry H          line    22 file /home/elliott/miniconda2/envs/pacc-env-mini/share/psi4/basis/cc-pvdz.gbs 


         ---------------------------------------------------------
                                   SCF
               by Justin Turney, Rob Parrish, Andy Simmonett
                          and Daniel G. A. Smith
                              RKS Reference
                        1 Threads,    953 MiB Core
         ---------------------------------------------------------

  ==> Geometry <==

    Molecular point group: cs
    Full point group: Cs

    Geometry (in Angstrom), charge = 0, multiplicity = 1:

       Center              X                  Y                   Z               Mass       
    ------------   -----------------  -----------------  -----------------  -----------------
         C            0.000000314330    -0.000000628661     0.000000000000    12.000000000000
         H           -0.001613653485     1.100141369505     0.000000000000     1.007825032230
         H           -0.518075695420    -0.365949798671     0.898261000000     1.007825032230
         H           -0.518075695420    -0.365949798671    -0.898261000000     1.007825032230
         H            1.037761301646    -0.368234286806     0.000000000000     1.007825032230

  Running in cs symmetry.

  Rotational constants: A =      5.19019  B =      5.18257  C =      5.17498 [cm^-1]
  Rotational constants: A = 155597.95722  B = 155369.41732  C = 155142.06195 [MHz]
  Nuclear repulsion =   13.311540520046444

  Charge       = 0
  Multiplicity = 1
  Electrons    = 10
  Nalpha       = 5
  Nbeta        = 5

  ==> Algorithm <==

  SCF Algorithm Type is PK.
  DIIS enabled.
  MOM disabled.
  Fractional occupation disabled.
  Guess Type is SAD.
  Energy threshold   = 1.00e-08
  Density threshold  = 1.00e-08
  Integral threshold = 0.00e+00

  ==> Primary Basis <==

  Basis Set: CC-PVDZ
    Blend: CC-PVDZ
    Number of shells: 18
    Number of basis function: 34
    Number of Cartesian functions: 35
[...]
Module time:
	user time   =       3.60 seconds =       0.06 minutes
	system time =       0.11 seconds =       0.00 minutes
	total time  =          3 seconds =       0.05 minutes
Total time:
	user time   =      75.68 seconds =       1.26 minutes
	system time =       2.28 seconds =       0.04 minutes
	total time  =         79 seconds =       1.32 minutes

*** tstart() called on blueslogin2
*** at Fri Aug 23 15:35:39 2019


         ------------------------------------------------------------
                                   SCF GRAD                          
                          Rob Parrish, Justin Turney,                
                       Andy Simmonett, and Alex Sokolov              
         ------------------------------------------------------------

  ==> Geometry <==

    Molecular point group: c1
    Full point group: C1

    Geometry (in Angstrom), charge = 0, multiplicity = 1:

       Center              X                  Y                   Z               Mass       
    ------------   -----------------  -----------------  -----------------  -----------------
         C            0.000000314330    -0.000000628661    -0.000000000000    12.000000000000
         H            0.000000314330     1.100141371339    -0.000000000000     1.007825032230
         H           -0.519931484242    -0.366710626967     0.899021829742     1.007825032230
         H           -0.517295887097    -0.366710630355    -0.897500170258     1.007825032230
         H            1.037223314330    -0.366712628661    -0.001521659484     1.007825032230

  Nuclear repulsion =   13.311546343433916

  ==> Basis Set <==

  Basis Set: CC-PVDZ
    Blend: CC-PVDZ
    Number of shells: 18
    Number of basis function: 34
    Number of Cartesian functions: 35
    Spherical Harmonics?: true
    Max angular momentum: 2

  ==> DirectJKGrad: Integral-Direct SCF Gradients <==

    Gradient:                    1
    J tasked:                  Yes
    K tasked:                  Yes
    wK tasked:                  No
    Integrals threads:           1
    Schwarz Cutoff:          0E+00

  ==> DFT Potential <==

   => Composite Functional: B3LYP <= 

    B3LYP Hyb-GGA Exchange-Correlation Functional

    P. J. Stephens, F. J. Devlin, C. F. Chabalowski, and M. J. Frisch, J. Phys. Chem. 98, 11623 (1994)

    Deriv               =              1
    GGA                 =           TRUE
    Meta                =          FALSE

    Exchange Hybrid     =           TRUE
    MP2 Hybrid          =          FALSE

   => Exchange Functionals <=

    0.0800   Slater exchange
    0.7200         Becke 88

   => Exact (HF) Exchange <=

    0.2000               HF 

   => Correlation Functionals <=

    0.1900   Vosko, Wilk & Nusair (VWN5_RPA)
    0.8100   Lee, Yang & Parr

   => Molecular Quadrature <=

    Radial Scheme          =       TREUTLER
    Pruning Scheme         =           FLAT
    Nuclear Scheme         =       TREUTLER

    BS radius alpha        =              1
    Pruning alpha          =              1
    Radial Points          =             75
    Spherical Points       =            302
    Total Points           =         111399
    Total Blocks           =            906
    Max Points             =            256
    Max Functions          =             34


  -Total Gradient:
     Atom            X                  Y                   Z
    ------   -----------------  -----------------  -----------------
       1       -0.000003788264    -0.000003274217    -0.001060153862
       2        0.000000170644     0.000146427752     0.000016475681
       3       -0.000577493328    -0.000249945046     0.000758938500
       4        0.000441974091     0.000156006267     0.000525453175
       5        0.000137327957    -0.000048729419    -0.000240668355


*** tstop() called on blueslogin2 at Fri Aug 23 15:35:40 2019
Module time:
	user time   =       0.84 seconds =       0.01 minutes
	system time =       0.01 seconds =       0.00 minutes
	total time  =          1 seconds =       0.02 minutes
Total time:
	user time   =      76.52 seconds =       1.28 minutes
	system time =       2.29 seconds =       0.04 minutes
	total time  =         80 seconds =       1.33 minutes

         ----------------------------------------------------------
                                   FINDIF
                     R. A. King and Jonathon Misiewicz
         ---------------------------------------------------------

  Computing second-derivative from gradients using projected, 
  symmetry-adapted, cartesian coordinates.

  16 gradients passed in, including the reference geometry.
  Generating complete list of displacements from unique ones.

    Operation 2 takes plus displacements of irrep A" to minus ones.

-------------------------------------------------------------


  ==> Harmonic Vibrational Analysis <==

  non-mass-weighted Hessian:       Symmetric? True   Hermitian? True   Lin Dep Dim?  6 (0)
  projection of translations (True) and rotations (True) removed 6 degrees of freedom (6)
  total projector:                 Symmetric? True   Hermitian? True   Lin Dep Dim?  6 (6)
  mass-weighted Hessian:           Symmetric? True   Hermitian? True   Lin Dep Dim?  6 (0)
  pre-proj  low-frequency mode:    0.0000i [cm^-1]
  pre-proj  low-frequency mode:    0.0000i [cm^-1]
  pre-proj  low-frequency mode:    0.0000i [cm^-1]
  pre-proj  low-frequency mode:    0.0000  [cm^-1]
  pre-proj  low-frequency mode:    0.0000  [cm^-1]
  pre-proj  low-frequency mode:    0.0000  [cm^-1]
  pre-proj  all modes:['0.0001i' '0.0000i' '0.0000i' '0.0000' '0.0000' '0.0000' '1310.3362'
 '1310.3629' '1310.3866' '1531.2298' '1531.2427' '3025.2899' '3146.7209'
 '3146.7272' '3146.7366']
  projected mass-weighted Hessian: Symmetric? True   Hermitian? True   Lin Dep Dim?  6 (6)
  post-proj low-frequency mode:    0.0001i [cm^-1] (TR)
  post-proj low-frequency mode:    0.0000i [cm^-1] (TR)
  post-proj low-frequency mode:    0.0000i [cm^-1] (TR)
  post-proj low-frequency mode:    0.0000  [cm^-1] (TR)
  post-proj low-frequency mode:    0.0000  [cm^-1] (TR)
  post-proj low-frequency mode:    0.0000  [cm^-1] (TR)
  post-proj  all modes:['0.0001i' '0.0000i' '0.0000i' '0.0000' '0.0000' '0.0000' '1310.3362'
 '1310.3629' '1310.3866' '1531.2298' '1531.2427' '3025.2899' '3146.7209'
 '3146.7272' '3146.7366']

  Vibration                       7                   8                   9           
  Freq [cm^-1]                1310.3362           1310.3629           1310.3866       
  Irrep                           Ap                 App                  Ap          
  Reduced mass [u]              1.1791              1.1791              1.1791        
  Force const [mDyne/A]         1.1928              1.1928              1.1929        
  Turning point v=0 [a0]        0.2792              0.2792              0.2792        
  RMS dev v=0 [a0 u^1/2]        0.2143              0.2143              0.2143        
  Char temp [K]               1885.2821           1885.3205           1885.3546       
  ----------------------------------------------------------------------------------
      1   C               -0.12 -0.00 -0.00    0.00  0.00 -0.12    0.00 -0.12 -0.00   
      2   H                0.60 -0.00  0.00   -0.00  0.00  0.60   -0.00 -0.09  0.00   
      3   H                0.45 -0.11  0.27    0.27  0.19  0.14   -0.11  0.53  0.19   
      4   H                0.45 -0.11 -0.27   -0.27 -0.19  0.14   -0.11  0.53 -0.19   
      5   H               -0.02  0.22  0.00   -0.00 -0.00  0.60    0.22  0.53  0.00   

  Vibration                       10                  11                  12          
  Freq [cm^-1]                1531.2298           1531.2427           3025.2899       
  Irrep                          App                  Ap                  Ap          
  Reduced mass [u]              1.0078              1.0078              1.0078        
  Force const [mDyne/A]         1.3922              1.3923              5.4346        
  Turning point v=0 [a0]        0.2793              0.2793              0.1987        
  RMS dev v=0 [a0 u^1/2]        0.1983              0.1983              0.1411        
  Char temp [K]               2203.0987           2203.1173           4352.7186       
  ----------------------------------------------------------------------------------
      1   C                0.00 -0.00  0.00   -0.00 -0.00  0.00    0.00  0.00 -0.00   
      2   H               -0.00 -0.00  0.50    0.50 -0.00  0.00    0.00  0.50  0.00   
      3   H               -0.29  0.41  0.00   -0.33 -0.24 -0.29   -0.24 -0.17  0.41   
      4   H                0.29 -0.41  0.00   -0.33 -0.24  0.29   -0.24 -0.17 -0.41   
      5   H               -0.00 -0.00 -0.50    0.17  0.47 -0.00    0.47 -0.17  0.00   

  Vibration                       13                  14                  15          
  Freq [cm^-1]                3146.7209           3146.7272           3146.7366       
  Irrep                          App                  Ap                  Ap          
  Reduced mass [u]              1.1016              1.1016              1.1016        
  Force const [mDyne/A]         6.4266              6.4266              6.4266        
  Turning point v=0 [a0]        0.1864              0.1864              0.1864        
  RMS dev v=0 [a0 u^1/2]        0.1383              0.1383              0.1383        
  Char temp [K]               4527.4307           4527.4399           4527.4534       
  ----------------------------------------------------------------------------------
      1   C                0.00  0.00 -0.09   -0.08 -0.05 -0.00    0.05 -0.08 -0.00   
      2   H                0.00 -0.00 -0.02   -0.02  0.44 -0.00    0.01  0.74 -0.00   
      3   H               -0.34 -0.24  0.57    0.22  0.16 -0.41    0.03 -0.00 -0.03   
      4   H                0.34  0.24  0.57    0.22  0.16  0.41    0.03 -0.00  0.03   
      5   H               -0.00  0.00 -0.02    0.51 -0.20 -0.00   -0.63  0.21 -0.00   

  ==> Thermochemistry Components <==

  Entropy, S
    Electronic S            0.000 [cal/(mol K)]        0.000 [J/(mol K)]       0.00000000 [mEh/K] (multiplicity = 1)
    Translational S        34.261 [cal/(mol K)]      143.349 [J/(mol K)]       0.05459877 [mEh/K] (mol. weight = 16.0313 [u], P = 101325.00 [Pa])
    Rotational S           15.113 [cal/(mol K)]       63.232 [J/(mol K)]       0.02408396 [mEh/K] (symmetry no. = 1)
    Vibrational S           0.099 [cal/(mol K)]        0.415 [J/(mol K)]       0.00015793 [mEh/K]
  Total S                  49.473 [cal/(mol K)]      206.996 [J/(mol K)]       0.07884066 [mEh/K]
  Correction S              0.000 [cal/(mol K)]        0.000 [J/(mol K)]       0.00000000 [mEh/K]

  Constant volume heat capacity, Cv
    Electronic Cv           0.000 [cal/(mol K)]        0.000 [J/(mol K)]       0.00000000 [mEh/K]
    Translational Cv        2.981 [cal/(mol K)]       12.472 [J/(mol K)]       0.00475022 [mEh/K]
    Rotational Cv           2.981 [cal/(mol K)]       12.472 [J/(mol K)]       0.00475022 [mEh/K]
    Vibrational Cv          0.564 [cal/(mol K)]        2.360 [J/(mol K)]       0.00089869 [mEh/K]
  Total Cv                  6.526 [cal/(mol K)]       27.303 [J/(mol K)]       0.01039912 [mEh/K]
  Correction Cv             0.000 [cal/(mol K)]        0.000 [J/(mol K)]       0.00000000 [mEh/K]

  Constant pressure heat capacity, Cp
    Electronic Cp           0.000 [cal/(mol K)]        0.000 [J/(mol K)]       0.00000000 [mEh/K]
    Translational Cp        4.968 [cal/(mol K)]       20.786 [J/(mol K)]       0.00791703 [mEh/K]
    Rotational Cp           2.981 [cal/(mol K)]       12.472 [J/(mol K)]       0.00475022 [mEh/K]
    Vibrational Cp          0.564 [cal/(mol K)]        2.360 [J/(mol K)]       0.00089869 [mEh/K]
  Total Cp                  8.513 [cal/(mol K)]       35.617 [J/(mol K)]       0.01356593 [mEh/K]
  Correction Cp             0.000 [cal/(mol K)]        0.000 [J/(mol K)]       0.00000000 [mEh/K]

  ==> Thermochemistry Energy Analysis <==

  Raw electronic energy, E0
  Total E0, Electronic energy at well bottom at 0 [K]                  -40.51634844 [Eh]

  Zero-point energy, ZPE_vib = Sum_i nu_i / 2
    Electronic ZPE          0.000 [kcal/mol]        0.000 [kJ/mol]       0.00000000 [Eh]
    Translational ZPE       0.000 [kcal/mol]        0.000 [kJ/mol]       0.00000000 [Eh]
    Rotational ZPE          0.000 [kcal/mol]        0.000 [kJ/mol]       0.00000000 [Eh]
    Vibrational ZPE        27.818 [kcal/mol]      116.391 [kJ/mol]       0.04433094 [Eh]        9729.516 [cm^-1]
  Correction ZPE           27.818 [kcal/mol]      116.391 [kJ/mol]       0.04433094 [Eh]        9729.516 [cm^-1]
  Total ZPE, Electronic energy at 0 [K]                                -40.47201750 [Eh]

  Thermal Energy, E (includes ZPE)
    Electronic E            0.000 [kcal/mol]        0.000 [kJ/mol]       0.00000000 [Eh]
    Translational E         0.889 [kcal/mol]        3.718 [kJ/mol]       0.00141628 [Eh]
    Rotational E            0.889 [kcal/mol]        3.718 [kJ/mol]       0.00141628 [Eh]
    Vibrational E          27.844 [kcal/mol]      116.498 [kJ/mol]       0.04437177 [Eh]
  Correction E             29.621 [kcal/mol]      123.935 [kJ/mol]       0.04720432 [Eh]
  Total E, Electronic energy at  298.15 [K]                            -40.46914412 [Eh]

  Enthalpy, H_trans = E_trans + k_B * T
    Electronic H            0.000 [kcal/mol]        0.000 [kJ/mol]       0.00000000 [Eh]
    Translational H         1.481 [kcal/mol]        6.197 [kJ/mol]       0.00236046 [Eh]
    Rotational H            0.889 [kcal/mol]        3.718 [kJ/mol]       0.00141628 [Eh]
    Vibrational H          27.844 [kcal/mol]      116.498 [kJ/mol]       0.04437177 [Eh]
  Correction H             30.214 [kcal/mol]      126.414 [kJ/mol]       0.04814851 [Eh]
  Total H, Enthalpy at  298.15 [K]                                     -40.46819993 [Eh]

  Gibbs free energy, G = H - T * S
    Electronic G            0.000 [kcal/mol]        0.000 [kJ/mol]       0.00000000 [Eh]
    Translational G        -8.734 [kcal/mol]      -36.542 [kJ/mol]      -0.01391816 [Eh]
    Rotational G           -3.617 [kcal/mol]      -15.134 [kJ/mol]      -0.00576436 [Eh]
    Vibrational G          27.814 [kcal/mol]      116.374 [kJ/mol]       0.04432468 [Eh]
  Correction G             15.463 [kcal/mol]       64.698 [kJ/mol]       0.02464217 [Eh]
  Total G, Free enthalpy at  298.15 [K]                                -40.49170628 [Eh]
  ## Hessian (Symmetry 0) ##
  Irrep: 1 Size: 15 x 15

                 1                   2                   3                   4                   5

    1     0.54139983696792     0.00000017492295     0.00000000000000    -0.04317385879240     0.00000068703038
    2     0.00000017492295     0.54141421915219     0.00000000000000    -0.00000017902593    -0.31970670880747
    3     0.00000000000000     0.00000000000000     0.54140416226846     0.00000000000000     0.00000000000000
    4    -0.04317385879240    -0.00000017902593     0.00000000000000     0.04289622863557    -0.00000003512899
    5     0.00000068703038    -0.31970670880747     0.00000000000000    -0.00000003512899     0.34444308143607
    6     0.00000000000000     0.00000000000000    -0.04317403352225     0.00000000000000     0.00000000000000
    7    -0.10462318858019    -0.04345167230950     0.10643532092573    -0.00086253317504     0.00063962734172
    8    -0.04345202778068    -0.07390226506281     0.07526124883439    -0.01513330344925    -0.00824550952274
    9     0.10643729459659     0.07526082789018    -0.22752677319304    -0.00165420795434    -0.00110792995774
   10    -0.10462318858019    -0.04345167230950    -0.10643532092573    -0.00086253317504     0.00063962734172
   11    -0.04345202778068    -0.07390226506281    -0.07526124883439    -0.01513330344925    -0.00824550952274
   12    -0.10643729459659    -0.07526082789018    -0.22752677319304     0.00165420795434     0.00110792995774
   13    -0.28897960101514     0.08690334872198     0.00000000000000     0.00200269650690    -0.00127990658483
   14     0.08690319360973    -0.07390298021911     0.00000000000000     0.03026682105328    -0.00824535358312
   15     0.00000000000000     0.00000000000000    -0.04317658236014     0.00000000000000     0.00000000000000

                 6                   7                   8                   9                  10

    1     0.00000000000000    -0.10462318858019    -0.04345202778068     0.10643729459659    -0.10462318858019
    2     0.00000000000000    -0.04345167230950    -0.07390226506281     0.07526082789018    -0.04345167230950
    3    -0.04317403352225     0.10643532092573     0.07526124883439    -0.22752677319304    -0.10643532092573
    4     0.00000000000000    -0.00086253317504    -0.01513330344925    -0.00165420795434    -0.00086253317504
    5     0.00000000000000     0.00063962734172    -0.00824550952274    -0.00110792995774     0.00063962734172
    6     0.04289588276084    -0.00165328441252     0.02621151604000     0.00104723894166     0.00165328441252
    7    -0.00165328441252     0.10990529207330     0.04738295258288    -0.11606482269910     0.00756120845836
    8     0.02621151604000     0.04738295258288     0.07640132865566    -0.08206960201132     0.00663118370057
    9     0.00104723894166    -0.11606482269910    -0.08206960201132     0.24392561267985     0.01287801459708
   10     0.00165328441252     0.00756120845836     0.00663118370057     0.01287801459708     0.10990529207330
   11    -0.02621151604000     0.00663118370057     0.00287315824739     0.00910679388960     0.04738295258288
   12     0.00104723894166    -0.01287801459708    -0.00910679388960    -0.01849447566014     0.11606482269910
   13     0.00000000000000    -0.01198077877644     0.00457119494648    -0.00159627854023    -0.01198077877644
   14     0.00000000000000    -0.01120209131599     0.00287328768236    -0.00119008981039    -0.01120209131599
   15    -0.00181632712191     0.02416080078297    -0.01029636897346     0.00104839723168    -0.02416080078297

                11                  12                  13                  14                  15

    1    -0.04345202778068    -0.10643729459659    -0.28897960101514     0.08690319360973     0.00000000000000
    2    -0.07390226506281    -0.07526082789018     0.08690334872198    -0.07390298021911     0.00000000000000
    3    -0.07526124883439    -0.22752677319304     0.00000000000000     0.00000000000000    -0.04317658236014
    4    -0.01513330344925     0.00165420795434     0.00200269650690     0.03026682105328     0.00000000000000
    5    -0.00824550952274     0.00110792995774    -0.00127990658483    -0.00824535358312     0.00000000000000
    6    -0.02621151604000     0.00104723894166     0.00000000000000     0.00000000000000    -0.00181632712191
    7     0.00663118370057    -0.01287801459708    -0.01198077877644    -0.01120209131599     0.02416080078297
    8     0.00287315824739    -0.00910679388960     0.00457119494648     0.00287328768236    -0.01029636897346
    9     0.00910679388960    -0.01849447566014    -0.00159627854023    -0.00119008981039     0.00104839723168
   10     0.04738295258288     0.11606482269910    -0.01198077877644    -0.01120209131599    -0.02416080078297
   11     0.07640132865566     0.08206960201132     0.00457119494648     0.00287328768236     0.01029636897346
   12     0.08206960201132     0.24392561267985     0.00159627854023     0.00119008981039     0.00104839723168
   13     0.00457119494648     0.00159627854023     0.31093846206112    -0.09476583203101     0.00000000000000
   14     0.00287328768236     0.00119008981039    -0.09476583203101     0.07640175843779     0.00000000000000
   15     0.01029636897346     0.00104839723168     0.00000000000000     0.00000000000000     0.04289611501870




    Psi4 stopped on: Friday, 23 August 2019 03:35PM
    Psi4 wall time for execution: 0:01:20.19

*** Psi4 exiting successfully. Buy a developer a beer!
