[Molden Format]
[Molpro variables]
_NUMVAR=  691.0000000000000    
_EV2006= 0.3674930886769165E-01
_EV= 0.3674932534394180E-01
_KJOULE= 0.3808798324128737E-03
_KJOULE/MOL= 0.3808798324128737E-03
_CM= 0.4556335267302901E-05
_CM-1= 0.4556335267302901E-05
_KCAL= 0.1593601117815568E-02
_KCAL/MOL= 0.1593601117815568E-02
_KELVIN2006= 0.3166828861084835E-05
_KELVIN= 0.3166814820820034E-05
_HERTZ2006= 0.1519829850815779E-15
_HERTZ= 0.1519829846011223E-15
_HZ2006= 0.1519829850815779E-15
_HZ= 0.1519829846011223E-15
_TOA2006= 0.5291772490000000    
_TOA= 0.5291772090000000    
_TOANG2006= 0.5291772490000000    
_TOANG= 0.5291772090000000    
_TORAD= 0.1745329251994330E-01
_TOCM=  219474.6306700000    
_TODEBYE=  2.541580000000000    
_TOEV2006=  27.21139610000000    
_TOEV=  27.21138390000000    
_TOHERTZ2006=  6579683899900000.    
_TOHERTZ=  6579683920700000.    
_TOHZ2006=  6579683899900000.    
_TOHZ=  6579683920700000.    
_TOK2006=  315773.3000000000    
_TOK=  315774.7000000000    
_TOKCAL=  627.5096000000000    
_TOKELVIN2006=  315773.3000000000    
_TOKELVIN=  315774.7000000000    
_TOKJ=  2625.500000000000    
_TOKJOULE=  2625.500000000000    
_ANG2006=  1.889725988578923    
_ANG=  1.889726131421507    
_ANGSTROM2006=  1.889725988578923    
_ANGSTROM=  1.889726131421507    
_IGNORE_UNDEF=  2.000000000000000    
_STRICTCHECK=  0.000000000000000    
_SEW_ONEEL=  0.000000000000000    
_CPPDONE=FALSE
_DKROLL_DONE=  0.000000000000000    
_FOCKDONE=  0.000000000000000    
_GRADONE=FALSE
_HESSDONE=FALSE
_INTDONE=TRUE
_SCFDONE=FALSE
_MODUL_CUDA=FALSE
_MODUL_SLATER=FALSE
_MODUL_MRCC=FALSE
_MRCC_EXEC=
_FITC_AO_SAVED=FALSE
_FITC_MO_SAVED=FALSE
_SHARED_FS=TRUE
_LSTYP=SEWARD
_INTYP=INTS
_GEOMTYP=ZMAT
_GRADTYP=ALASKA
_DIRECT=FALSE
_SYNCM=  0.000000000000000    
_BASIS=CC-PVDZ
_ZORIENT=  1.000000000000000    
_NELEC=  16.00000000000000    
_SPIN=  0.000000000000000    
!SPIN=  0.000000000000000    
_QSDSTEP=  0.000000000000000    
_QSDIRC=  0.000000000000000    
_PROGRAM=RS2
_CPUSTEP= 0.5999999999999983E-01
_SYSSTEP= 0.1000000000000001E-01
_WALLSTEP=  1.320000000000000    
!DFMP2=  0.000000000000000    
!DFSCF=  0.000000000000000    
!SCSGRD=  0.000000000000000    
_BASINP=  610.0000000000000    
_CPUTOT=  1.660000000000000    
_DFTEXFAC=  1.000000000000000    
_DMX= 0.1792314380478727E-05
_DMY= 0.2699170506923343    
_DMZ= 0.2587756267105594    
_EMP2= -78.15251200886553    
_ENERGR= -77.90019681394283    
_ENERGU= -78.13549718468221    
_ENERGY= -78.15251200886553    
_ENUC=  30.62931065518883    
_GRADEXFAC=  9999.000000000000    
_GRADMETHOD=TRUE
!GRID_FREEZE= -1.000000000000000    
_ITERATIONS=  5.000000000000000    
_LASTNELEC=  2.000000000000000    
_LASTSPIN=  0.000000000000000    
_LASTSYM=  1.000000000000000    
_MPP_PROG=  1.000000000000000    
_NPROC_MPP=  4.000000000000000    
_NPROC_SMP=  1.000000000000000    
_NUMSTEP=  0.000000000000000    
_ORBITAL=  2142.200000000000    
_PI=  3.141592653589793    
!MCACT=  2.000000000000000    
!MCCLOSED=  7.000000000000000    
!MCFREEZE=  0.000000000000000    
!MCMS2=  0.000000000000000    
!MCNEL=  2.000000000000000    
!MCNSTSYM=  1.000000000000000    
!MCSTATE=  1.000000000000000    
!MCSYM=  1.000000000000000    
!MCWEIGHT=  1.000000000000000    
_SEIG_MIN= 0.4114729642290594E-02
_SEWPROP=TRUE
_STATUS=  1.000000000000000    
_SYSTOT= 0.3000000000000000    
_VERSION=  2010001.000000000    
_WALLTOT=  12.00000000000000    
_DATE=06-Sep-19
_LASTORB=MCSCF
_MACHINE=Linux-2.6.34-12-desktop/tt109(x86_64) 64 bit mpp version
_OUTPUT=/home/carlo/qm/combustion/barrierless/c2h4_c2h3_h/dist_2.6/molpro.xml
_PGROUP=C1
_TIME=02:44:07
_LIBMOL=/programs/molpro2010p/bin/../lib/
!SURFREC=  0.000000000000000    
!POLYREC=  0.000000000000000    
!DIPREC=  0.000000000000000    
!VSCFREC=  0.000000000000000    
!VCIREC=  0.000000000000000    
!PVCIREC=  0.000000000000000    
!VMP2REC=  0.000000000000000    
!VMCSCFREC=  0.000000000000000    
!GAREC=  0.000000000000000    
!SCFORB=  21002.00000000000    
!MCORB=  21422.00000000000    
!CIOCC=  9.000000000000000    
!CICORE=  2.000000000000000    
!CICLOS=  7.000000000000000    
!CIISTSYM=  1.000000000000000    
!CIISTMS2=  0.000000000000000    
!CIISTNEL=  12.00000000000000    
!NEWMOL=  0.000000000000000    
!NEWSYM=  0.000000000000000    
_SLFILES=slscratch
_NGSSTO=  9.000000000000000    
_SIN=SIN
_COS=COS
_TAN=TAN
_ACOS=ACOS
_ASIN=ASIN
_ATAN=ATAN
_COSH=COSH
_SINH=SINH
_TANH=TANH
_ABS=ABS
_MOD=MOD
_ERF=ERF
_REFC=REFC
_ERFC=ERFC
_HYPOT=HYPOT
_J0=J0
_J1=J1
_JN=JN
_GAMMA=GAMMA
_LGAMMA=LGAMMA
_Y0=Y0
_Y1=Y1
_YN=YN
_EXP=EXP
_LOG=LOG
_LOG10=LOG10
_SQRT=SQRT
_INT=INT
_NINT=NINT
_MAX=MAX
_MIN=MIN
_COSMO=  0.000000000000000    
_COSMOIT=  0.000000000000000    
_COSMOES=  0.000000000000000    
_COSMOEDS=  0.000000000000000    
_COSMOEC=  0.000000000000000    
_COSMOEDCORR=  0.000000000000000    
_FEPSI=  1.000000000000000    
_SL_IsMM=  0.000000000000000    
_SL_NSYM=  0.000000000000000    
_SL_System_BitSw=  0.000000000000000    
_SL_Unique_atoms=  0.000000000000000    
_SL_GRAD=  0.000000000000000    
_SL_MAXUPD_Hess=  5.000000000000000    
_SL_N_PRINT_COD=  5.000000000000000    
_SL_PRINT_CODES=  0.000000000000000    
_SL_BasType=  0.000000000000000    
_SL_Energy_Pred=  0.000000000000000    
_SL_New_Coords=  0.000000000000000    
_SL_Total_Nuclea=  0.000000000000000    
_SL_Highest_Mltp=  0.000000000000000    
_SL_Ref_Geom=  0.000000000000000    
!LATTICE= -1.000000000000000    
!NEWLATTICE=  0.000000000000000    
!LATGRAD_VAR=FALSE
!SEW_LATTICE=  1.000000000000000    
!LOCAL=  0.000000000000000    
!SAVEDOM= -1.000000000000000    
!RESTDOM= -1.000000000000000    
!SAVEDOM_HF= -1.000000000000000    
!RESTDOM_HF= -1.000000000000000    
!HESSREC=  0.000000000000000    
!FREQREC=  0.000000000000000    
!NMODREC=  0.000000000000000    
!GTASKS=  0.000000000000000    
!HTASKS=  0.000000000000000    
!THRCHG= 0.1000000000000000    
!DEBUG= -1.000000000000000    
!CFIT_CPHF=  0.000000000000000    
!RDOMAUX_CPHF=  3.000000000000000    
!THRAO_CPHF= 0.1000000000000000E-09
!THRMO_CPHF= 0.1000000000000000E-08
!THROV_CPHF= 0.1000000000000000E-11
!THRSW_CPHF= 0.1000000000000000E-09
!THRPROD_CPHF= 0.1000000000000000E-08
!THRAOPR_CPHF= 0.1000000000000000E-11
!CFIT_SCFGRD=  0.000000000000000    
!RDOMAUX_SCFGRD=  5.000000000000000    
!THRAO_SCFGRD= 0.1000000000000000E-09
!THRMO_SCFGRD= 0.1000000000000000E-08
!THROV_SCFGRD= 0.1000000000000000E-11
!THRSW_SCFGRD= 0.1000000000000000E-09
!THRPROD_SCFGRD= 0.1000000000000000E-08
!THRAOPR_SCFGRD= 0.1000000000000000E-11
!LOCFIT_SCF=  0.000000000000000    
!LOCFIT_MP2= -1.000000000000000    
_RIDOM=  0.000000000000000    
!CC2_METHOD=  0.000000000000000    
_BASIS2006=FALSE
_SVDDEL= -1.000000000000000    
_SVDDELA= -1.000000000000000    
_SVDDELP= -1.000000000000000    
_SVDDELF= -1.000000000000000    
_SVDDELS= -1.000000000000000    
_SVDDEL_ABS= -1.000000000000000    
_SVDDELA_ABS= -1.000000000000000    
_SVDDELP_ABS= -1.000000000000000    
_SVDDELF_ABS= -1.000000000000000    
_SVDDELS_ABS= -1.000000000000000    
_MAXBASIS=  0.000000000000000    
!OPT_CONICAL=  0.000000000000000    
!CLEARSP_JGRID=  0.000000000000000    
RCC1=  1.333301341647209    
RCC2=  1.099557576116653    
RCC3=  1.093866361350643    
RCH2=  1.091050767573001    
ACCC1=  120.3858927810157    
AHCC1=  122.1006713348470    
AHCC2=  118.2396767645897    
AHCC3=  135.8856056640358    
B1=  179.9999207820111    
B2=  180.0004649029738    
B3=  180.0002839816811    
RCH1=  2.600000000000000    
GX1=-0.2060653827387667E-06
GY1= 0.3941340680395488    
GZ1= -1.138372369024499    
GX2= 0.1736321593004136E-06
GY2=-0.2246966103368314    
GZ2=  1.304024748553286    
GX3=-0.1191429260757643E-04
GY3=  1.254700709849630    
GZ3=  2.763098737386994    
GX4= 0.9881808486811882E-05
GY4= -2.191935150819687    
GZ4=  1.938774602611257    
GX5=-0.6105093595365240E-05
GY5= -3.230782058100330    
GZ5= -4.455054668617086    
GX6= 0.8524064458116477E-05
GY6=  2.148934704055463    
GZ6= -2.220796021739566    
CBSEN= -78.15251200886553    
[Atoms] Angs
C     1    6        -0.0000001090        0.2085667661       -0.6024007130
C     2    6         0.0000000919       -0.1189043251        0.6900601769
H     3    1        -0.0000063048        0.6639590198        1.4621688780
H     4    1         0.0000052292       -1.1599221254        1.0259553331
H     5    1        -0.0000032307       -1.7096562324       -2.3575133955
H     6    1         0.0000045107        1.1371672690       -1.1751946405
[GTO]
  1 0
 s    9  1.00
  0.6665000000D+04  0.6920001793D-03
  0.1000000000D+04  0.5329001381D-02
  0.2280000000D+03  0.2707700701D-01
  0.6471000000D+02  0.1017180264D+00
  0.2106000000D+02  0.2747400712D+00
  0.7495000000D+01  0.4485641162D+00
  0.2797000000D+01  0.2850740738D+00
  0.5215000000D+00  0.1520400394D-01
  0.1596000000D+00 -0.3191000827D-02
 s    9  1.00
  0.6665000000D+04 -0.1460000642D-03
  0.1000000000D+04 -0.1154000508D-02
  0.2280000000D+03 -0.5725002519D-02
  0.6471000000D+02 -0.2331201026D-01
  0.2106000000D+02 -0.6395502813D-01
  0.7495000000D+01 -0.1499810660D+00
  0.2797000000D+01 -0.1272620560D+00
  0.5215000000D+00  0.5445292395D+00
  0.1596000000D+00  0.5804962554D+00
 s    9  1.00
  0.6665000000D+04  0.0000000000D+00
  0.1000000000D+04  0.0000000000D+00
  0.2280000000D+03  0.0000000000D+00
  0.6471000000D+02  0.0000000000D+00
  0.2106000000D+02  0.0000000000D+00
  0.7495000000D+01  0.0000000000D+00
  0.2797000000D+01  0.0000000000D+00
  0.5215000000D+00  0.0000000000D+00
  0.1596000000D+00  0.1000000000D+01
 p    4  1.00
  0.9439000000D+01  0.3810902127D-01
  0.2002000000D+01  0.2094801169D+00
  0.5456000000D+00  0.5085572839D+00
  0.1517000000D+00  0.4688422617D+00
 p    4  1.00
  0.9439000000D+01  0.0000000000D+00
  0.2002000000D+01  0.0000000000D+00
  0.5456000000D+00  0.0000000000D+00
  0.1517000000D+00  0.1000000000D+01
 d    1  1.00
  0.5500000000D+00  0.1000000000D+01
  
  2 0
 s    9  1.00
  0.6665000000D+04  0.6920001793D-03
  0.1000000000D+04  0.5329001381D-02
  0.2280000000D+03  0.2707700701D-01
  0.6471000000D+02  0.1017180264D+00
  0.2106000000D+02  0.2747400712D+00
  0.7495000000D+01  0.4485641162D+00
  0.2797000000D+01  0.2850740738D+00
  0.5215000000D+00  0.1520400394D-01
  0.1596000000D+00 -0.3191000827D-02
 s    9  1.00
  0.6665000000D+04 -0.1460000642D-03
  0.1000000000D+04 -0.1154000508D-02
  0.2280000000D+03 -0.5725002519D-02
  0.6471000000D+02 -0.2331201026D-01
  0.2106000000D+02 -0.6395502813D-01
  0.7495000000D+01 -0.1499810660D+00
  0.2797000000D+01 -0.1272620560D+00
  0.5215000000D+00  0.5445292395D+00
  0.1596000000D+00  0.5804962554D+00
 s    9  1.00
  0.6665000000D+04  0.0000000000D+00
  0.1000000000D+04  0.0000000000D+00
  0.2280000000D+03  0.0000000000D+00
  0.6471000000D+02  0.0000000000D+00
  0.2106000000D+02  0.0000000000D+00
  0.7495000000D+01  0.0000000000D+00
  0.2797000000D+01  0.0000000000D+00
  0.5215000000D+00  0.0000000000D+00
  0.1596000000D+00  0.1000000000D+01
 p    4  1.00
  0.9439000000D+01  0.3810902127D-01
  0.2002000000D+01  0.2094801169D+00
  0.5456000000D+00  0.5085572839D+00
  0.1517000000D+00  0.4688422617D+00
 p    4  1.00
  0.9439000000D+01  0.0000000000D+00
  0.2002000000D+01  0.0000000000D+00
  0.5456000000D+00  0.0000000000D+00
  0.1517000000D+00  0.1000000000D+01
 d    1  1.00
  0.5500000000D+00  0.1000000000D+01
  
  3 0
 s    4  1.00
  0.1301000000D+02  0.1968498999D-01
  0.1962000000D+01  0.1379769298D+00
  0.4446000000D+00  0.4781477569D+00
  0.1220000000D+00  0.5012397451D+00
 s    4  1.00
  0.1301000000D+02  0.0000000000D+00
  0.1962000000D+01  0.0000000000D+00
  0.4446000000D+00  0.0000000000D+00
  0.1220000000D+00  0.1000000000D+01
 p    1  1.00
  0.7270000000D+00  0.1000000000D+01
  
  4 0
 s    4  1.00
  0.1301000000D+02  0.1968498999D-01
  0.1962000000D+01  0.1379769298D+00
  0.4446000000D+00  0.4781477569D+00
  0.1220000000D+00  0.5012397451D+00
 s    4  1.00
  0.1301000000D+02  0.0000000000D+00
  0.1962000000D+01  0.0000000000D+00
  0.4446000000D+00  0.0000000000D+00
  0.1220000000D+00  0.1000000000D+01
 p    1  1.00
  0.7270000000D+00  0.1000000000D+01
  
  5 0
 s    4  1.00
  0.1301000000D+02  0.1968498999D-01
  0.1962000000D+01  0.1379769298D+00
  0.4446000000D+00  0.4781477569D+00
  0.1220000000D+00  0.5012397451D+00
 s    4  1.00
  0.1301000000D+02  0.0000000000D+00
  0.1962000000D+01  0.0000000000D+00
  0.4446000000D+00  0.0000000000D+00
  0.1220000000D+00  0.1000000000D+01
 p    1  1.00
  0.7270000000D+00  0.1000000000D+01
  
  6 0
 s    4  1.00
  0.1301000000D+02  0.1968498999D-01
  0.1962000000D+01  0.1379769298D+00
  0.4446000000D+00  0.4781477569D+00
  0.1220000000D+00  0.5012397451D+00
 s    4  1.00
  0.1301000000D+02  0.0000000000D+00
  0.1962000000D+01  0.0000000000D+00
  0.4446000000D+00  0.0000000000D+00
  0.1220000000D+00  0.1000000000D+01
 p    1  1.00
  0.7270000000D+00  0.1000000000D+01
 
 
[MO]
 Sym=      1.1
 Ene=     -11.2724
 Spin= Alpha
 Occup=    2.000000
1 1.00016039544635
2 0.006057895390806
3 -0.006912877186057
4 0.000000005973706
5 0.001180218146608
6 0.000328130869172
7 -0.000000008178786
8 -0.000804689654729
9 -0.000735046724161
10 -0.000670510252117
11 0.000167265937000
12 0.000503244315117
13 0.000000004414160
14 -0.000000003525660
15 -0.001180846189309
16 0.040837279383614
17 -0.001008435073391
18 0.002169430190811
19 0.000000002779128
20 -0.000136171146267
21 0.000389827036947
22 -0.000000001422750
23 0.000836579253417
24 -0.001291027472312
25 0.000270923878865
26 0.000057478543577
27 -0.000328402422442
28 0.000000001299616
29 -0.000000000566533
30 -0.000445861502416
31 0.000223325735907
32 0.000020418762040
33 0.000000002344785
34 -0.000225095682042
35 -0.000150837696085
36 0.000021559972596
37 0.000674615078774
38 -0.000000000243897
39 0.000010762163615
40 -0.000136844541624
41 -0.000324519158236
42 0.000247104960751
43 0.000000000141147
44 0.000073239865810
45 0.000077268273315
46 -0.001413884435341
47 0.002144220309682
48 0.000000004246585
49 0.000833107844950
50 -0.000139228121648
 Sym=      2.1
 Ene=     -11.2525
 Spin= Alpha
 Occup=    2.000000
1 -0.041870975481962
2 -0.001094297394266
3 0.002880182889322
4 -0.000000000550283
5 -0.000068710457052
6 -0.000351156575223
7 -0.000000000490506
8 -0.000436810198197
9 0.001198176812360
10 0.000332020971031
11 -0.000114838127523
12 -0.000217182843508
13 0.000000001295045
14 0.000000000937686
15 0.000145788719278
16 1.00051886463682
17 0.008067860288198
18 -0.009176624791135
19 -0.000000006231375
20 -0.000021909606729
21 0.000048253268245
22 0.000000005234714
23 -0.000046629978681
24 0.000568276476968
25 -0.000747327499051
26 0.000279266017507
27 0.000468061481543
28 -0.000000006528383
29 -0.000000002677821
30 -0.000068573592427
31 -0.000545286845242
32 0.001453499832058
33 -0.000000003121183
34 0.000420913510318
35 0.000321301321217
36 -0.000558602727336
37 0.001523524052949
38 0.000000002532621
39 -0.000518525098168
40 0.000092397513200
41 0.000021200465268
42 -0.000018094189157
43 -0.000000000037288
44 -0.000005436588628
45 -0.000023594799447
46 0.000196302713169
47 0.000144923483768
48 -0.000000001613286
49 -0.000140486577023
50 0.000075017254684
 Sym=      3.1
 Ene=      -1.0242
 Spin= Alpha
 Occup=    2.000000
1 -0.016939576514701
2 0.56831138702838
3 -0.12661069635769
4 0.000000043395834
5 -0.006984698150575
6 0.23063574071711
7 -0.000000104519493
8 0.001032078140364
9 -0.060200832724113
10 -0.010029387018279
11 -0.010828229056053
12 0.020857616074332
13 0.000000011207337
14 0.000000011249461
15 -0.010133381388100
16 -0.023146673544178
17 0.65527029670169
18 -0.18846129422139
19 -0.000000033198824
20 0.050286665780132
21 -0.16950649362146
22 0.000000012007498
23 -0.014574666171325
24 0.070809038961134
25 -0.006908445034762
26 -0.008984541842486
27 0.015892986877248
28 0.000000022995648
29 0.000000009204039
30 -0.009546957306172
31 0.20994265199533
32 -0.10397367408972
33 0.000000112720054
34 -0.013074231689264
35 -0.015862988319663
36 0.21179303358463
37 -0.096313881515368
38 -0.000000093343933
39 0.018390661087781
40 -0.008187082187870
41 -0.001999247622979
42 -0.004790870181155
43 0.000000000885079
44 0.000131197956943
45 -0.000006209130703
46 0.16766665461916
47 -0.072419913157789
48 -0.000000059907173
49 -0.010896642927964
50 0.010565929174295
 Sym=      4.1
 Ene=      -0.7670
 Spin= Alpha
 Occup=    2.000000
1 -0.010231472320006
2 0.52120862162740
3 -0.094672378434426
4 0.000000654017220
5 0.22852621992991
6 -0.13517340806970
7 -0.000000312699557
8 -0.055090188967132
9 0.032689878463779
10 -0.002980578935835
11 0.008039280919127
12 -0.005058701983292
13 0.000000053500401
14 -0.000000029525873
15 -0.004540938532601
16 0.010545154509970
17 -0.38826600568506
18 0.062156250727729
19 0.000000096964196
20 0.12553634206536
21 -0.26865040440289
22 -0.000000041906365
23 -0.026708010640135
24 0.060054686122998
25 0.001395993176847
26 -0.010030338772465
27 0.008634345595618
28 0.000000092989073
29 0.000000017562544
30 -0.010731007009558
31 -0.28325334556828
32 0.10083953090870
33 -0.000000115439877
34 0.015478895615778
35 0.009338189096251
36 -0.34850327085310
37 0.13929187516390
38 0.000000124369983
39 -0.022143349389271
40 0.002298543795092
41 -0.003210549668664
42 -0.006392098144295
43 0.000000001097551
44 0.000193238563485
45 0.000136185538281
46 0.48738711145525
47 -0.18268555087003
48 -0.000000150600629
49 -0.024229561518452
50 0.015584916771006
 Sym=      5.1
 Ene=      -0.6190
 Spin= Alpha
 Occup=    2.000000
1 -0.002571337623233
2 -0.10895198299075
3 0.058310985721943
4 0.000000595016230
5 0.33263463523194
6 -0.38724234311700
7 -0.000000132431437
8 -0.088877890003550
9 0.10510393118187
10 -0.000712509561158
11 0.010288564168230
12 -0.009576054607072
13 0.000000061667145
14 -0.000000094602105
15 0.006395689770436
16 -0.002696161239504
17 0.012755236047322
18 0.018926793024375
19 -0.000001660817055
20 0.20890930759872
21 0.55150137852941
22 0.000000409025695
23 -0.039067423947765
24 -0.12200876294815
25 -0.001356170721556
26 0.013593435898147
27 -0.012237265176591
28 -0.000000097180892
29 -0.000000136167295
30 0.011923454514337
31 0.52238583732132
32 -0.15618259959258
33 0.000000155007951
34 -0.018386133396002
35 -0.011223831152144
36 -0.015940215582605
37 0.009038743043391
38 -0.000000022277957
39 0.002177708242391
40 0.009462822288562
41 0.006086499637577
42 0.005606702593849
43 0.000000000272962
44 0.000165201567814
45 -0.000207855126054
46 0.37808270159027
47 -0.11611874874267
48 -0.000000100822710
49 -0.014339566207971
50 0.004756474940941
 Sym=      6.1
 Ene=      -0.5793
 Spin= Alpha
 Occup=    2.000000
1 0.002083545549137
2 -0.033711248727397
3 -0.028407320772659
4 -0.000001702779966
5 -0.11109049363235
6 0.31821400911746
7 0.000000416878196
8 0.022313801702757
9 -0.091617459541408
10 0.002254513750146
11 -0.018091618293533
12 0.015837104543388
13 -0.000000021897893
14 -0.000000085801685
15 0.023086394159744
16 0.000708152857112
17 0.028055914024254
18 -0.009146658961991
19 -0.000003582746128
20 0.59490674747171
21 -0.14631045952138
22 0.000000753202521
23 -0.11950117472737
24 0.025956698931103
25 -0.000412311642151
26 -0.016537478333758
27 0.016949789975909
28 0.000000017996696
29 -0.000000023878642
30 0.015933669263068
31 0.34329137749735
32 -0.087451539459536
33 0.000000040863781
34 -0.001699900924927
35 -0.015609255438026
36 -0.59786461676395
37 0.16713126378037
38 0.000000082429864
39 -0.019850367074603
40 0.007786674734418
41 0.010388759873506
42 0.010095880530125
43 -0.000000001541706
44 0.000001215796280
45 -0.000017952304670
46 -0.29999624291053
47 0.072748016225078
48 0.000000018806985
49 0.008217618033078
50 -0.002730590480475
 Sym=      7.1
 Ene=      -0.3853
 Spin= Alpha
 Occup=    2.000000
1 0.000000027202490
2 -0.000002069553108
3 -0.000000722543447
4 0.57995972560071
5 0.000001533574452
6 0.000002959396987
7 0.007589039066547
8 -0.000000246768862
9 -0.000000086398215
10 0.000000026244087
11 -0.000000146178687
12 0.000000119934599
13 -0.003573274669995
14 0.035217740593149
15 0.000000215776203
16 0.000000029218961
17 0.000001161177593
18 -0.000000247105994
19 0.58361610379510
20 0.000003892196998
21 -0.000000389220775
22 0.023067484757921
23 0.000000076439638
24 0.000000424529260
25 -0.000000043671228
26 0.000000029954110
27 0.000000013717118
28 0.008986732386299
29 -0.032187219252593
30 -0.000000050780152
31 0.000000030322072
32 0.000000024834194
33 0.013452144075347
34 0.000000116754550
35 0.000000024425365
36 -0.000000856092776
37 -0.000000026965305
38 0.013310233068556
39 0.000000067322350
40 -0.000000001115059
41 -0.000000151209188
42 0.000000089569232
43 0.001273024222827
44 -0.000000018082571
45 -0.000000020165485
46 0.000000285061143
47 -0.000000278203157
48 0.014253541214483
49 -0.000000081269112
50 0.000000118982404
 Sym=      8.1
 Ene=      -0.2549
 Spin= Alpha
 Occup=    1.479609
1 -0.000582920556617
2 0.20338213853069
3 0.071895876940111
4 0.000002653098614
5 -0.43626758613668
6 -0.33849928563920
7 0.000000333629524
8 -0.022413246982245
9 -0.017823520602687
10 -0.000719307951300
11 0.000906738886404
12 -0.000187430935104
13 -0.000000134021427
14 0.000000010435805
15 0.019191091036515
16 -0.001843810060164
17 -0.081377609097354
18 0.029093393861504
19 0.000001131387578
20 0.015401832590513
21 0.094754447941771
22 0.000000094857315
23 0.044307421438802
24 -0.020309506537619
25 0.000432793292575
26 -0.010456777844122
27 0.010023984551547
28 0.000000039506658
29 -0.000000189331269
30 0.024322977621464
31 0.11976091090835
32 0.010781637342003
33 0.000000035687400
34 -0.000306121891321
35 0.000737396530678
36 -0.089305174788135
37 0.018210158706848
38 0.000000028047969
39 0.000511810896921
40 0.002335857608338
41 0.63970620791310
42 0.036909911366779
43 0.000000013566429
44 0.000383285658627
45 0.000083538419454
46 -0.14884479967523
47 0.020873980408131
48 0.000000083992150
49 -0.005497961780111
50 -0.009349921517419
 Sym=      9.1
 Ene=      -0.0440
 Spin= Alpha
 Occup=    0.520391
1 -0.001943342018743
2 -0.27597832918434
3 -0.10907700008346
4 -0.000002792158932
5 0.52494412546759
6 0.41759258141822
7 -0.000000214275360
8 0.033083028873792
9 0.004390547121035
10 0.004550441395254
11 -0.003598230986746
12 -0.000952210408508
13 0.000000220167790
14 0.000000085701225
15 -0.026540654935491
16 0.001171714337565
17 0.080781104365176
18 -0.009914926485622
19 -0.000000450475278
20 -0.019946413591361
21 -0.11042263627419
22 0.000000077114766
23 -0.059150695529017
24 0.007882262994464
25 -0.001486230375538
26 0.012413793926713
27 -0.010927563551174
28 -0.000000046173019
29 0.000000196469912
30 -0.027305543881770
31 -0.13779997379854
32 -0.000976486928523
33 -0.000000021757931
34 0.000443097145950
35 0.000530120250202
36 0.093563501174696
37 -0.020648429658635
38 -0.000000010490199
39 -0.001080321351585
40 -0.003309002437315
41 0.80727823973160
42 -0.054307489384572
43 0.000000002957409
44 -0.000469267841245
45 -0.000559345357275
46 0.15127557094210
47 -0.026764690457889
48 -0.000000079574874
49 0.006323276426566
50 0.009960542508222
 Sym=     10.1
 Ene=       0.1633
 Spin= Alpha
 Occup=    0.000000
1 0.000000355523921
2 -0.000001958873191
3 -0.000007078167980
4 0.54085321594825
5 -0.000001454555261
6 0.000002424733611
7 0.49044424598443
8 -0.000002994917826
9 0.000004158810044
10 -0.000000022875186
11 -0.000000024602174
12 0.000000047477360
13 0.014149673629983
14 -0.019373083938253
15 -0.000000189272521
16 0.000000100518587
17 0.000001369355225
18 -0.000002141768119
19 -0.51284500199822
20 -0.000003577514556
21 -0.000002210915884
22 -0.50320758233913
23 -0.000003916203100
24 0.000000545636378
25 0.000000013633386
26 -0.000000006132435
27 -0.000000007500951
28 0.005940879825808
29 -0.026516476190712
30 0.000000151926507
31 0.000001555760506
32 0.000001572806983
33 -0.018338741860941
34 -0.000000095632017
35 -0.000000026739097
36 -0.000001331428141
37 -0.000004242290187
38 -0.018680534975761
39 -0.000000142456292
40 -0.000000127670568
41 0.000000301395712
42 0.000000388412867
43 0.005815796463521
44 -0.000000076408536
45 -0.000000036068681
46 0.000003866670390
47 0.000009145780520
48 0.023780701764542
49 -0.000000129228895
50 0.000000066900109
 Sym=     11.1
 Ene=       0.2085
 Spin= Alpha
 Occup=    0.000000
1 -0.019906269424749
2 0.065851515763085
3 0.67894359546801
4 0.000001638866912
5 0.14046712424227
6 -0.12145946601263
7 0.000003461126098
8 0.29340998660588
9 -0.28768499944182
10 -0.004517833930786
11 0.005093277262113
12 -0.000575443331328
13 0.000000229622795
14 -0.000000088553910
15 -0.012226273640545
16 -0.059542190677122
17 0.14549978739742
18 1.69853358788783
19 -0.000001726695208
20 0.033070997052296
21 0.25323104733543
22 -0.000003598477160
23 -0.024121233164948
24 0.48309480710242
25 -0.021068340423754
26 0.019223384912071
27 0.001844955511683
28 -0.000000290708849
29 -0.000000152300917
30 -0.002409300978305
31 -0.034547506290053
32 -1.44029636382163
33 -0.000000136204672
34 0.012071419968286
35 0.015287006808528
36 -0.034705253880825
37 -0.92945118090133
38 0.000000056476161
39 -0.015648060968957
40 0.006929159518724
41 0.065777200603385
42 -0.027085742353025
43 0.000000004717330
44 0.000613283840149
45 -0.006046988274118
46 0.023955078341387
47 -0.99152913426485
48 0.000000116640198
49 0.007858423393662
50 -0.012688229348211
 Sym=     12.1
 Ene=       0.2213
 Spin= Alpha
 Occup=    0.000000
1 -0.038970057617707
2 0.15573359589112
3 1.04447581877389
4 0.000003970196344
5 0.25306153268873
6 -0.076120096099222
7 0.000006861990782
8 0.50283563179206
9 -0.34652741225717
10 -0.010482454976086
11 0.018954589280396
12 -0.008472134304310
13 0.000000194791117
14 -0.000000183601799
15 -0.004001862129185
16 0.028541924024009
17 -0.16837662198636
18 -0.75228670851368
19 -0.000003534199427
20 0.19049637755101
21 0.001943822060551
22 -0.000006753936295
23 0.32790351349086
24 -0.20527375421440
25 0.010609960098669
26 -0.007038566906253
27 -0.003571393192416
28 0.000000109086929
29 -0.000000144260820
30 -0.014686223207155
31 -0.010022995941051
32 0.10255050554784
33 -0.000000065474021
34 -0.006346713157439
35 -0.001131051827264
36 0.065865544889325
37 1.30322047038820
38 -0.000000151605065
39 0.014977599760107
40 0.000899250767215
41 -0.001947064413921
42 0.021654818923729
43 0.000000061665663
44 -0.001117108033540
45 0.003355755450940
46 -0.092019156361295
47 -1.70714323546783
48 0.000000233215424
49 0.021003965242077
50 -0.006515388348879
 Sym=     13.1
 Ene=       0.2711
 Spin= Alpha
 Occup=    0.000000
1 -0.024713584172767
2 0.057939392681469
3 0.79371379632424
4 0.000000933693551
5 0.10637462661035
6 -0.038475418416472
7 -0.000000629666254
8 0.77452006546009
9 -0.081725958833040
10 -0.017183918107172
11 0.022581752577181
12 -0.005397834470009
13 0.000000140576525
14 -0.000000050816876
15 -0.020462151922941
16 0.008210985789555
17 -0.010110586589244
18 -0.095437614912035
19 0.000002717126909
20 -0.39691426607003
21 -0.089313705386441
22 0.000007177184845
23 -1.39534670826453
24 -0.29128863297040
25 0.003831472620591
26 0.009531503284136
27 -0.013362975904728
28 0.000000016209025
29 0.000000130306020
30 -0.029331998191294
31 -0.019180135997884
32 1.91364678436352
33 0.000000135720639
34 -0.015625714110137
35 -0.021494804962985
36 0.033414033389970
37 -1.76742466770772
38 0.000000119620918
39 -0.019363292440932
40 0.013350273409285
41 0.079926674378880
42 0.035942678140331
43 -0.000000046814555
44 -0.005433458627032
45 -0.006960989107546
46 0.059678288652860
47 -1.22598797398800
48 0.000000066824634
49 0.017544488125375
50 -0.011415931366055
 Sym=     14.1
 Ene=       0.4567
 Spin= Alpha
 Occup=    0.000000
1 0.049331732295840
2 -0.15991150067102
3 -3.75601562356384
4 0.000001532627058
5 0.17152348711012
6 -0.23253218080328
7 0.000000142641822
8 0.94406108081782
9 -2.76122078213691
10 0.031108669050069
11 0.029645335045914
12 -0.060754004095982
13 -0.000000287979604
14 0.000000040100795
15 0.030098452223060
16 -0.080618652220589
17 -0.060487053086216
18 3.62039811068158
19 0.000001111513562
20 0.018461030527362
21 -0.090689964484169
22 -0.000001130033017
23 0.64950859906836
24 -3.33096811482820
25 -0.056391555286983
26 0.028659416701994
27 0.027732138584989
28 -0.000000602240479
29 -0.000000222521489
30 -0.018771338719162
31 0.25881487757751
32 0.60069976593488
33 -0.000000102575390
34 0.014984317504966
35 -0.004796756896727
36 0.27045214788659
37 0.31127700433577
38 0.000000190838441
39 -0.022185787278901
40 -0.006606496541288
41 -0.14598111670065
42 0.059764031670098
43 0.000000018987460
44 0.015495775509275
45 -0.004895809401540
46 0.089559113820616
47 -1.13364791721487
48 -0.000000107338389
49 -0.017886720723431
50 -0.001461471754144
 Sym=     15.1
 Ene=       0.5878
 Spin= Alpha
 Occup=    0.000000
1 0.17550977426126
2 0.56553759169399
3 -1.02518584493216
4 -0.000000279104979
5 -0.076824716473516
6 0.46617280408092
7 -0.000001476210638
8 0.26166883426624
9 -1.43583462670410
10 -0.080819394784404
11 0.030236497077048
12 0.050582897707357
13 0.000000532482930
14 -0.000000174810649
15 -0.12977739255760
16 0.10592109336355
17 0.54270300604978
18 0.40977594113298
19 0.000001073275093
20 0.22315719703462
21 -0.70863520677486
22 0.000001569185433
23 -0.29384974282078
24 0.48978667478629
25 -0.028675207868143
26 -0.005869793540651
27 0.034545001408794
28 -0.000000294767286
29 -0.000000191989901
30 0.028018463089190
31 0.21258335863471
32 -0.060357124391862
33 0.000000009337563
34 0.005481386922168
35 0.050160229614239
36 -0.47387213877316
37 0.45650663555007
38 0.000000279111438
39 -0.019269086011547
40 -0.004532725599956
41 0.39507897942502
42 -0.51524914983799
43 -0.000000029354532
44 0.013839179493309
45 -0.006650309998927
46 0.72163548866272
47 -0.98205219642574
48 0.000000037331915
49 0.059467771307996
50 -0.088450798848424
 Sym=     16.1
 Ene=       0.6308
 Spin= Alpha
 Occup=    0.000000
1 -0.013697923957636
2 -0.085288980680399
3 0.55779376037204
4 -0.000004772090804
5 0.011278815428476
6 -0.38301878229147
7 -0.000001068828248
8 -0.56382831900253
9 1.71867312207560