[Molden Format]
[Molpro variables]
_NUMVAR=  700.0000000000000    
_EV2006= 0.3674930886769165E-01
_EV= 0.3674932534394180E-01
_KJOULE= 0.3808798324128737E-03
_KJOULE/MOL= 0.3808798324128737E-03
_CM= 0.4556335267302901E-05
_CM-1= 0.4556335267302901E-05
_KCAL= 0.1593601117815568E-02
_KCAL/MOL= 0.1593601117815568E-02
_KELVIN2006= 0.3166828861084835E-05
_KELVIN= 0.3166814820820034E-05
_HERTZ2006= 0.1519829850815779E-15
_HERTZ= 0.1519829846011223E-15
_HZ2006= 0.1519829850815779E-15
_HZ= 0.1519829846011223E-15
_TOA2006= 0.5291772490000000    
_TOA= 0.5291772090000000    
_TOANG2006= 0.5291772490000000    
_TOANG= 0.5291772090000000    
_TORAD= 0.1745329251994330E-01
_TOCM=  219474.6306700000    
_TODEBYE=  2.541580000000000    
_TOEV2006=  27.21139610000000    
_TOEV=  27.21138390000000    
_TOHERTZ2006=  6579683899900000.    
_TOHERTZ=  6579683920700000.    
_TOHZ2006=  6579683899900000.    
_TOHZ=  6579683920700000.    
_TOK2006=  315773.3000000000    
_TOK=  315774.7000000000    
_TOKCAL=  627.5096000000000    
_TOKELVIN2006=  315773.3000000000    
_TOKELVIN=  315774.7000000000    
_TOKJ=  2625.500000000000    
_TOKJOULE=  2625.500000000000    
_ANG2006=  1.889725988578923    
_ANG=  1.889726131421507    
_ANGSTROM2006=  1.889725988578923    
_ANGSTROM=  1.889726131421507    
_IGNORE_UNDEF=  2.000000000000000    
_STRICTCHECK=  0.000000000000000    
_SEW_ONEEL=  0.000000000000000    
_CPPDONE=FALSE
_DKROLL_DONE=  0.000000000000000    
_FOCKDONE=  0.000000000000000    
_GRADONE=FALSE
_HESSDONE=TRUE
_INTDONE=TRUE
_SCFDONE=FALSE
_MODUL_CUDA=FALSE
_MODUL_SLATER=FALSE
_MODUL_MRCC=FALSE
_MRCC_EXEC=
_FITC_AO_SAVED=FALSE
_FITC_MO_SAVED=FALSE
_SHARED_FS=TRUE
_LSTYP=SEWARD
_INTYP=INTS
_GEOMTYP=ZMAT
_GRADTYP=ALASKA
_DIRECT=FALSE
_SYNCM=  0.000000000000000    
_BASIS=CC-PVDZ
_ZORIENT=  1.000000000000000    
_NELEC=  10.00000000000000    
_SPIN=  0.000000000000000    
!SPIN=  0.000000000000000    
_OPTCONV= 0.5180402024042967E-03
_QSDSTEP=  0.000000000000000    
_QSDIRC=  0.000000000000000    
_PROGRAM=FREQ
_CPUSTEP=  0.000000000000000    
_SYSSTEP=  0.000000000000000    
_WALLSTEP= 0.2600000000000000    
!DFMP2=  0.000000000000000    
!DFSCF=  0.000000000000000    
!SCSGRD=  0.000000000000000    
_BASINP=  610.0000000000000    
_CPUTOT=  106.9400000000000    
_DFTEXFAC=  1.000000000000000    
_DMX=-0.1955291231785374E-05
_DMY= 0.3352014126048690E-06
_DMZ= 0.2642879406696192    
_FREQUENCIES= -766.1325492600964    
_EMP2= -40.20669650742285    
_ENERGR= -40.07086805831827    
_ENERGU= -40.23484437283248    
_ENERGY= -40.20669650742285    
_ENUC=  11.34406718378818    
_FREQSTEP=  31.00000000000000    
!RS2GRSTATE=  1.000000000000000    
!RS2GRSYM=  1.000000000000000    
_GRADENERG= -40.20652255406652    
_GRADEXFAC=  9999.000000000000    
_GRADMETHOD=TRUE
_GRADRECORD=  5200.100000000000    
_VIRIAL= 0.8493091908318268E-01
!GRID_FREEZE= -1.000000000000000    
_ITERATIONS=  0.000000000000000    
_LASTNELEC=  2.000000000000000    
_LASTSPIN=  0.000000000000000    
_LASTSYM=  1.000000000000000    
_MPP_PROG=  1.000000000000000    
_MSENERGY= -40.20669650742285    
_NPROC_MPP=  4.000000000000000    
_NPROC_SMP=  1.000000000000000    
_NUMSTEP=  0.000000000000000    
_OPTCONVMX= 0.2680416957253187E-03
_OPTCONVRMS= 0.6475502530053708E-04
_OPTGRAD= 0.2264493318431570E-03
_OPTGRADMX= 0.1332700730825501E-03
_OPTGRADRMS= 0.2830616648039463E-04
_OPTSTEP=  7.000000000000000    
_ORBITAL=  2142.200000000000    
_PI=  3.141592653589793    
!MCACT=  2.000000000000000    
!MCCLOSED=  4.000000000000000    
!MCFREEZE=  0.000000000000000    
!MCMS2=  0.000000000000000    
!MCNEL=  2.000000000000000    
!MCNSTSYM=  1.000000000000000    
!MCSTATE=  1.000000000000000    
!MCSYM=  1.000000000000000    
!MCWEIGHT=  1.000000000000000    
_SEIG_MIN= 0.1509815677685039E-01
_SEWPROP=TRUE
_STATUS=  1.000000000000000    
_SYSTOT=  4.920000000000000    
_VERSION=  2010001.000000000    
_WALLTOT=  489.6400000000000    
_ZPE= 0.3242377720116169E-01
_DATE=30-Aug-19
_LASTORB=MCSCF
_MACHINE=Linux-2.6.34-12-desktop/tt109(x86_64) 64 bit mpp version
_OUTPUT=/home/carlo/qm/combustion/test_diss/newalg/ch4_ch3_h_vrc_test1/dist_2.6/molpro.xml
_PGROUP=C1
_TIME=06:28:06
_LIBMOL=/programs/molpro2010p/bin/../lib/
!SURFREC=  0.000000000000000    
!POLYREC=  0.000000000000000    
!DIPREC=  0.000000000000000    
!VSCFREC=  0.000000000000000    
!VCIREC=  0.000000000000000    
!PVCIREC=  0.000000000000000    
!VMP2REC=  0.000000000000000    
!VMCSCFREC=  0.000000000000000    
!GAREC=  0.000000000000000    
!SCFORB=  21002.00000000000    
!MCORB=  21422.00000000000    
!CIOCC=  6.000000000000000    
!CICORE=  1.000000000000000    
!CICLOS=  4.000000000000000    
!CIISTSYM=  1.000000000000000    
!CIISTMS2=  0.000000000000000    
!CIISTNEL=  8.000000000000000    
!NEWMOL=  0.000000000000000    
!NEWSYM=  0.000000000000000    
_SLFILES=slscratch
_NGSSTO=  9.000000000000000    
_SIN=SIN
_COS=COS
_TAN=TAN
_ACOS=ACOS
_ASIN=ASIN
_ATAN=ATAN
_COSH=COSH
_SINH=SINH
_TANH=TANH
_ABS=ABS
_MOD=MOD
_ERF=ERF
_REFC=REFC
_ERFC=ERFC
_HYPOT=HYPOT
_J0=J0
_J1=J1
_JN=JN
_GAMMA=GAMMA
_LGAMMA=LGAMMA
_Y0=Y0
_Y1=Y1
_YN=YN
_EXP=EXP
_LOG=LOG
_LOG10=LOG10
_SQRT=SQRT
_INT=INT
_NINT=NINT
_MAX=MAX
_MIN=MIN
_COSMO=  0.000000000000000    
_COSMOIT=  0.000000000000000    
_COSMOES=  0.000000000000000    
_COSMOEDS=  0.000000000000000    
_COSMOEC=  0.000000000000000    
_COSMOEDCORR=  0.000000000000000    
_FEPSI=  1.000000000000000    
_SL_IsMM=  0.000000000000000    
_SL_NSYM=  0.000000000000000    
_SL_System_BitSw=  0.000000000000000    
_SL_Unique_atoms=  0.000000000000000    
_SL_GRAD=  0.000000000000000    
_SL_MAXUPD_Hess=  5.000000000000000    
_SL_N_PRINT_COD=  5.000000000000000    
_SL_PRINT_CODES=  0.000000000000000    
_SL_BasType=  0.000000000000000    
_SL_Energy_Pred=  0.000000000000000    
_SL_New_Coords=  0.000000000000000    
_SL_Total_Nuclea=  0.000000000000000    
_SL_Highest_Mltp=  0.000000000000000    
_SL_Ref_Geom=  0.000000000000000    
!LATTICE= -1.000000000000000    
!NEWLATTICE=  0.000000000000000    
!LATGRAD_VAR=FALSE
!SEW_LATTICE=  1.000000000000000    
!LOCAL=  0.000000000000000    
!SAVEDOM= -1.000000000000000    
!RESTDOM= -1.000000000000000    
!SAVEDOM_HF= -1.000000000000000    
!RESTDOM_HF= -1.000000000000000    
!HESSREC=  5300.200000000000    
!FREQREC=  5400.200000000000    
!NMODREC=  5450.200000000000    
!GTASKS=  0.000000000000000    
!HTASKS=  5500.200000000000    
!THRCHG= 0.1000000000000000    
!DEBUG= -1.000000000000000    
!CFIT_CPHF=  0.000000000000000    
!RDOMAUX_CPHF=  3.000000000000000    
!THRAO_CPHF= 0.1000000000000000E-09
!THRMO_CPHF= 0.1000000000000000E-09
!THROV_CPHF= 0.1000000000000000E-11
!THRSW_CPHF= 0.1000000000000000E-09
!THRPROD_CPHF= 0.1000000000000000E-09
!THRAOPR_CPHF= 0.1000000000000000E-11
!CFIT_SCFGRD=  0.000000000000000    
!RDOMAUX_SCFGRD=  5.000000000000000    
!THRAO_SCFGRD= 0.1000000000000000E-09
!THRMO_SCFGRD= 0.1000000000000000E-09
!THROV_SCFGRD= 0.1000000000000000E-11
!THRSW_SCFGRD= 0.1000000000000000E-09
!THRPROD_SCFGRD= 0.1000000000000000E-09
!THRAOPR_SCFGRD= 0.1000000000000000E-11
!LOCFIT_SCF=  0.000000000000000    
!LOCFIT_MP2= -1.000000000000000    
_RIDOM=  0.000000000000000    
!CC2_METHOD=  0.000000000000000    
_BASIS2006=FALSE
_SVDDEL= -1.000000000000000    
_SVDDELA= -1.000000000000000    
_SVDDELP= -1.000000000000000    
_SVDDELF= -1.000000000000000    
_SVDDELS= -1.000000000000000    
_SVDDEL_ABS= -1.000000000000000    
_SVDDELA_ABS= -1.000000000000000    
_SVDDELP_ABS= -1.000000000000000    
_SVDDELF_ABS= -1.000000000000000    
_SVDDELS_ABS= -1.000000000000000    
_MAXBASIS=  0.000000000000000    
!OPT_CONICAL=  0.000000000000000    
!CLEARSP_JGRID=  0.000000000000000    
RCH1=  1.090813185147955    
RCH2=  1.090815416623134    
RCH3=  1.090817314534779    
AHCC1=  119.3842014842544    
AHCC2=  119.3842827509355    
AHCC3=  94.52656591836251    
B1=  164.4332806448091    
B2= -97.78356222163625    
RCH4=  2.600000000000000    
GX1= 0.1649323020335575E-05
GY1= 0.3513513301628760E-06
GZ1= 0.2780324344834999    
GX2=  2.038056683921470    
GY2= 0.2626408300889231    
GZ2= 0.4407184792231644    
GX3=-0.7915876520638003    
GY3= -1.896326628429246    
GZ3= 0.4407064729763339    
GX4= -1.246497087413064    
GY4=  1.633686643238494    
GZ4= 0.4406893257840300    
GX5= 0.8401589090212269E-05
GY5=-0.5031735509711255E-05
GZ5= -4.635255507204827    
C1X1= 0.1649323020335575E-05
C1Y1= 0.3513513301637433E-06
C1Z1= 0.2780324344834999    
H2X2=  2.038056683921470    
H2Y2= 0.2626408300889231    
H2Z2= 0.4407184792231644    
H3X3=-0.7915876520638003    
H3Y3= -1.896326628429246    
H3Z3= 0.4407064729763339    
H4X4= -1.246497087413064    
H4Y4=  1.633686643238494    
H4Z4= 0.4406893257840300    
H5X5= 0.8401589090212269E-05
H5Y5=-0.5031735509711255E-05
H5Z5= -4.635255507204827    
CBSEN= -40.20669650742285    
[Atoms] Angs
C     1    6         0.0000008728        0.0000001859        0.1471284277
H     2    1         1.0784931478        0.1389835414        0.2332181748
H     3    1        -0.4188901444       -1.0034928326        0.2332118214
H     4    1        -0.6596178497        0.8645097382        0.2332027475
H     5    1         0.0000044459       -0.0000026627       -2.4528715723
[GTO]
  1 0
 s    9  1.00
  0.6665000000D+04  0.6920001793D-03
  0.1000000000D+04  0.5329001381D-02
  0.2280000000D+03  0.2707700701D-01
  0.6471000000D+02  0.1017180264D+00
  0.2106000000D+02  0.2747400712D+00
  0.7495000000D+01  0.4485641162D+00
  0.2797000000D+01  0.2850740738D+00
  0.5215000000D+00  0.1520400394D-01
  0.1596000000D+00 -0.3191000827D-02
 s    9  1.00
  0.6665000000D+04 -0.1460000642D-03
  0.1000000000D+04 -0.1154000508D-02
  0.2280000000D+03 -0.5725002519D-02
  0.6471000000D+02 -0.2331201026D-01
  0.2106000000D+02 -0.6395502813D-01
  0.7495000000D+01 -0.1499810660D+00
  0.2797000000D+01 -0.1272620560D+00
  0.5215000000D+00  0.5445292395D+00
  0.1596000000D+00  0.5804962554D+00
 s    9  1.00
  0.6665000000D+04  0.0000000000D+00
  0.1000000000D+04  0.0000000000D+00
  0.2280000000D+03  0.0000000000D+00
  0.6471000000D+02  0.0000000000D+00
  0.2106000000D+02  0.0000000000D+00
  0.7495000000D+01  0.0000000000D+00
  0.2797000000D+01  0.0000000000D+00
  0.5215000000D+00  0.0000000000D+00
  0.1596000000D+00  0.1000000000D+01
 p    4  1.00
  0.9439000000D+01  0.3810902127D-01
  0.2002000000D+01  0.2094801169D+00
  0.5456000000D+00  0.5085572839D+00
  0.1517000000D+00  0.4688422617D+00
 p    4  1.00
  0.9439000000D+01  0.0000000000D+00
  0.2002000000D+01  0.0000000000D+00
  0.5456000000D+00  0.0000000000D+00
  0.1517000000D+00  0.1000000000D+01
 d    1  1.00
  0.5500000000D+00  0.1000000000D+01
  
  2 0
 s    4  1.00
  0.1301000000D+02  0.1968498999D-01
  0.1962000000D+01  0.1379769298D+00
  0.4446000000D+00  0.4781477569D+00
  0.1220000000D+00  0.5012397451D+00
 s    4  1.00
  0.1301000000D+02  0.0000000000D+00
  0.1962000000D+01  0.0000000000D+00
  0.4446000000D+00  0.0000000000D+00
  0.1220000000D+00  0.1000000000D+01
 p    1  1.00
  0.7270000000D+00  0.1000000000D+01
  
  3 0
 s    4  1.00
  0.1301000000D+02  0.1968498999D-01
  0.1962000000D+01  0.1379769298D+00
  0.4446000000D+00  0.4781477569D+00
  0.1220000000D+00  0.5012397451D+00
 s    4  1.00
  0.1301000000D+02  0.0000000000D+00
  0.1962000000D+01  0.0000000000D+00
  0.4446000000D+00  0.0000000000D+00
  0.1220000000D+00  0.1000000000D+01
 p    1  1.00
  0.7270000000D+00  0.1000000000D+01
  
  4 0
 s    4  1.00
  0.1301000000D+02  0.1968498999D-01
  0.1962000000D+01  0.1379769298D+00
  0.4446000000D+00  0.4781477569D+00
  0.1220000000D+00  0.5012397451D+00
 s    4  1.00
  0.1301000000D+02  0.0000000000D+00
  0.1962000000D+01  0.0000000000D+00
  0.4446000000D+00  0.0000000000D+00
  0.1220000000D+00  0.1000000000D+01
 p    1  1.00
  0.7270000000D+00  0.1000000000D+01
  
  5 0
 s    4  1.00
  0.1301000000D+02  0.1968498999D-01
  0.1962000000D+01  0.1379769298D+00
  0.4446000000D+00  0.4781477569D+00
  0.1220000000D+00  0.5012397451D+00
 s    4  1.00
  0.1301000000D+02  0.0000000000D+00
  0.1962000000D+01  0.0000000000D+00
  0.4446000000D+00  0.0000000000D+00
  0.1220000000D+00  0.1000000000D+01
 p    1  1.00
  0.7270000000D+00  0.1000000000D+01
 
 
[MO]
 Sym=      1.1
 Ene=     -11.2509
 Spin= Alpha
 Occup=    2.000000
1 1.00129949105087
2 0.007470152796571
3 -0.007661655952118
4 0.000000002093438
5 -0.000000002065719
6 0.000255500310864
7 0.000000008219097
8 0.000000005311713
9 -0.000039534317672
10 0.000357560572819
11 0.000357518984538
12 -0.000715079557357
13 0.000000006784064
14 0.000000008768627
15 -0.000000004930125
16 -0.000547706814264
17 0.001472098102459
18 0.000488224878811
19 0.000062916868468
20 0.000066871900904
21 -0.000547664529204
22 0.001472075121804
23 -0.000189618302616
24 -0.000454268815716
25 0.000066866658465
26 -0.000547660758136
27 0.001472065864013
28 -0.000298593584292
29 0.000391355944032
30 0.000066862680295
31 -0.000164525152759
32 0.000337953126545
33 -0.000000000001502
34 0.000000000010440
35 0.000149363106273
 Sym=      2.1
 Ene=      -0.9042
 Spin= Alpha
 Occup=    2.000000
1 -0.025385542225573
2 0.76285920775690
3 -0.14489602020197
4 -0.000000242577376
5 -0.000000591848020
6 0.041285637987673
7 0.000000176680118
8 0.000000370447639
9 -0.007916854445979
10 0.002054829991470
11 0.002054748560586
12 -0.004109578552056
13 0.000000047077775
14 0.000000056907751
15 -0.000000033368119
16 0.34641039486208
17 -0.14450810365892
18 -0.027721765551529
19 -0.003572476689099
20 -0.001036644403488
21 0.34640931984703
22 -0.14450726920791
23 0.010767169215295
24 0.025793839931394
25 -0.001036465651080
26 0.34640763970893
27 -0.14450657416884
28 0.016954756356946
29 -0.022221325011665
30 -0.001036220594264
31 0.008301339919229
32 -0.001230179406421
33 -0.000000000627728
34 0.000000000128058
35 0.000769959951924
 Sym=      3.1
 Ene=      -0.5743
 Spin= Alpha
 Occup=    2.000000
1 0.000000050261729
2 -0.000001025327439
3 0.000000439750776
4 -0.63443652053923
5 -0.10650124430717
6 -0.000004191215596
7 0.11721403497007
8 0.019676482253880
9 0.000000806503318
10 -0.019996022513790
11 0.019996149497299
12 -0.000000126983509
13 -0.005118858826751
14 -0.005718828273988
15 -0.000960108384654
16 -0.63424998009062
17 0.18150443397722
18 0.022424365094112
19 0.002413277329043
20 0.002199351395639
21 0.33809367585736
22 -0.096752739822015
23 -0.005045819629106
24 0.015131403178179
25 -0.001172388629552
26 0.29615832634692
27 -0.084752017549812
28 -0.002324800507866
29 -0.015017708531322
30 -0.001026842330476
31 0.000000125439020
32 -0.000000060402454
33 -0.000573481648434
34 -0.000096267564352
35 0.000000002341348
 Sym=      4.1
 Ene=      -0.5743
 Spin= Alpha
 Occup=    2.000000
1 0.000000009605322
2 0.000000650598915
3 0.000000420428274
4 -0.10650086966256
5 0.63443619528268
6 -0.000003204968836
7 0.019675923535046
8 -0.11721178095209
9 0.000000643381165
10 0.004433236797074
11 -0.004433172819080
12 -0.000000063977994
13 -0.023089929551787
14 -0.000959847872838
15 0.005718523863488
16 -0.024210999006879
17 0.006928511818026
18 -0.000728632905058
19 0.012388772191129
20 0.000083897852418
21 -0.53717051443661
22 0.15372166294418
23 -0.013446856577835
24 -0.015081369515007
25 0.001862527162428
26 0.56138222475822
27 -0.16065013431338
28 0.016702450234936
29 -0.012360388172837
30 -0.001946335094550
31 0.000000116580022
32 -0.000000036837426
33 -0.000096272220477
34 0.000573495033903
35 0.000000007146313
 Sym=      5.1
 Ene=      -0.2390
 Spin= Alpha
 Occup=    1.490485
1 0.000526951655094
2 -0.026134642518322
3 -0.021784216750147
4 -0.000004356566787
5 0.000002339551388
6 0.56223945912735
7 -0.000000533973878
8 0.000000245884397
9 0.066040783377610
10 0.004231218645413
11 0.004231173370044
12 -0.008462392015457
13 -0.000000002222150
14 0.000000037974268
15 -0.000000065713540
16 0.040318591966003
17 -0.011024069697495
18 -0.001520731073956
19 -0.000195910613780
20 0.012699837318371
21 0.040318423360197
22 -0.011024067433546
23 0.000590514340503
24 0.001414940530910
25 0.012699767048640
26 0.040318760274867
27 -0.011024029001965
28 0.000929938815505
29 -0.001218888510917
30 0.012699765646689
31 -0.64018122488435
32 -0.044255700714112
33 0.000000001025048
34 0.000000000472115
35 0.000302752977528
 Sym=      6.1
 Ene=      -0.0309
 Spin= Alpha
 Occup=    0.509515
1 0.002976549327878
2 -0.085998316597974
3 -0.048078152931894
4 -0.000004774246610
5 0.000002564546996
6 0.69462704441216
7 -0.000000637417101
8 0.000000303545232
9 0.079960081904223
10 0.003413037515702
11 0.003413004921824
12 -0.006826042437526
13 0.000000008604391
14 0.000000044504720
15 -0.000000079683378
16 0.017585363799662
17 -0.003134420209724
18 0.000166691314429
19 0.000021543912854
20 0.013875944766422
21 0.017584809650231
22 -0.003134413016935
23 -0.000064897027673
24 -0.000155159138536
25 0.013875847002597
26 0.017584443229029
27 -0.003134343357977
28 -0.000102142356515
29 0.000133776916632
30 0.013875829867520
31 0.81276111764441
32 -0.064811020356545
33 -0.000000006391927
34 0.000000001899052
35 -0.001346815984112
 Sym=      7.1
 Ene=       0.1997
 Spin= Alpha
 Occup=    0.000000
1 -0.081924137646181
2 0.21150786717080
3 2.06121499082851
4 -0.000002158795253
5 0.000000844479741
6 0.070211628038494
7 -0.000005864354600
8 0.000000525590718
9 0.077762695188271
10 0.012091785220079
11 0.012091125731664
12 -0.024182910951743
13 0.000000105119511
14 0.000000263530220
15 -0.000000183421463
16 -0.064729810911811
17 -1.00537657751519
18 0.016642050224327
19 0.002144691617649
20 0.003482995712532
21 -0.064728346658318
22 -1.00537712007852
23 -0.006463631490711
24 -0.015484684334611
25 0.003482832446446
26 -0.064729155043524
27 -1.00537843920764
28 -0.010178199670093
29 0.013340134553243
30 0.003482671739559
31 0.094887159320930
32 -0.012940220118708
33 0.000000070794643
34 -0.000000022661643
35 -0.002168785517804
 Sym=      8.1
 Ene=       0.2665
 Spin= Alpha
 Occup=    0.000000
1 0.000000005018326
2 -0.000001378207311
3 -0.000008446060721
4 -0.40253776081868
5 0.20324733863708
6 -0.000003778882612
7 -1.09287323921251
8 0.55179920069410
9 -0.000010772057795
10 -0.013092880581089
11 0.013093041510591
12 -0.000000160929501
13 -0.017281207839740
14 -0.007105908467117
15 0.003587569215768
16 0.025955025900086
17 1.77279020574717
18 -0.022273363401144
19 -0.000507587128296
20 -0.000684460867253
21 0.002263448663988
22 0.15434940322941
23 -0.003100154123824
24 0.003384465553376
25 -0.000059629757344
26 -0.028216917614910
27 -1.92713186793245
28 -0.016057695309580
29 0.018042478639597
30 0.000743710328740
31 0.000000712649122
32 -0.000000561891932
33 0.002556314410209
34 -0.001290738979670
35 -0.000000006612391
 Sym=      9.1
 Ene=       0.2665
 Spin= Alpha
 Occup=    0.000000
1 0.000000130213553
2 0.000000991631219
3 -0.000001493464965
4 0.20324609278740
5 0.40253885024574
6 -0.000000060979695
7 0.55180767016860
8 1.09286461094093
9 -0.000000144220941
10 0.014965970320175
11 -0.014966196569296
12 0.000000226249121
13 -0.015118318947659
14 0.003588053907578
15 0.007105701474025
16 -0.017595098972198
17 -1.20175436433698
18 0.014453970895487
19 0.005348061716266
20 0.000463973057487
21 0.031277934732490
22 2.13614796658522
23 0.010561692242110
24 0.024520589466865
25 -0.000824612029637
26 -0.013685496993736
27 -0.93438908582717
28 -0.004096541307270
29 0.011562928376408
30 0.000360633394896
31 -0.000000351092556
32 0.000000241198160
33 -0.001290668253036
34 -0.002556266526323
35 0.000000027999538
 Sym=     10.1
 Ene=       0.6092
 Spin= Alpha
 Occup=    0.000000
1 -0.000000076173955
2 0.000000420735646
3 -0.000002922153941
4 0.033888923002101
5 -0.44381732277407
6 0.000000394123480
7 -0.12415611796168
8 1.62600003079901
9 -0.000004877085189
10 -0.032873618327646
11 0.032872731503465
12 0.000000886824181
13 0.11920785565379
14 0.001133050813531
15 -0.014847315886957
16 -0.069041186924862
17 0.025031122921820
18 -0.009133159252445
19 0.069251074173166
20 -0.000272787583507
21 1.18434640383943
22 -0.42939748044723
23 -0.030694054575668
24 0.008965897117615
25 0.004671799924959
26 -1.11531571834309
27 0.40437852178554
28 0.032294377569218
29 0.020434988272294
30 -0.004399737388418
31 -0.000004460258726
32 0.000004078564471
33 -0.002225620666948
34 0.029147364734229
35 0.000000299292512
 Sym=     11.1
 Ene=       0.6092
 Spin= Alpha
 Occup=    0.000000
1 0.000003745058609
2 0.000008484319832
3 -0.000024826120448
4 0.44381982412388
5 0.033889807639704
6 0.000006824838766
7 -1.62603900206421
8 -0.12416502992911
9 -0.000023629387484
10 0.10323933692234
11 -0.10323441470258
12 -0.000004922219756
13 0.037959193434717
14 0.014849079348095
15 0.001134524038105
16 1.32773672688146
17 -0.48135399280712
18 0.003484697795450
19 0.004111346220469
20 0.005238302189287
21 -0.60403904418024
22 0.21897213690585
23 -0.056804954241102
24 0.025671096645135
25 -0.002383395000588
26 -0.72361797969552
27 0.26232939539291
28 -0.045336017206383
29 -0.037315787479419
30 -0.002854809057532
31 0.000033200496407
32 -0.000038110401260
33 -0.029147742121518
34 -0.002225712026368
35 -0.000000272974590
 Sym=     12.1
 Ene=       0.6554
 Spin= Alpha
 Occup=    0.000000
1 -0.045446968055639
2 -0.004611263370403
3 0.32692580626020
4 0.000011255715904
5 0.000003808347317
6 -0.10120400541415
7 -0.000050002257179
8 -0.000013238852937
9 0.42033319994052
10 -0.077474095479270
11 -0.077478552191209
12 0.15495264767048
13 0.000000851155915
14 -0.000001084578976
15 0.000001021950131
16 -0.61494951045690
17 0.35921686134103
18 -0.063664665872575
19 -0.008204488673339
20 -0.012411355651299
21 -0.61501016524333
22 0.35923056672774
23 0.024725441364841
24 0.059237752383278
25 -0.012411532074755
26 -0.61500651498069
27 0.35923579740083
28 0.038936169073007
29 -0.051034321090617
30 -0.012411250663398
31 -1.70580389774229
32 1.94426061789783
33 -0.000000938260612
34 -0.000000208753793
35 0.000551506423431
 Sym=     13.1
 Ene=       0.7290
 Spin= Alpha
 Occup=    0.000000
1 -0.054289150814402
2 -0.032963212624158
3 0.35668802140029
4 0.000012802871554
5 -0.000002470501309
6 -1.13973466181949
7 -0.000028497465667
8 -0.000001814595547
9 1.31880468632123
10 -0.057862051313363
11 -0.057861505129509
12 0.11572355644287
13 -0.000000081093557
14 -0.000001288632913
15 0.000000867247241
16 -0.57689228520415
17 0.41234263777692
18 -0.040649471861997
19 -0.005238706849409
20 -0.031447018085502
21 -0.57690976698229
22 0.41233921100866
23 0.015787693458637
24 0.037821983770131
25 -0.031446394534650
26 -0.57690872522319
27 0.41234420849385
28 0.024860768252085
29 -0.032584165163359
30 -0.031445483704369
31 0.97957312971176
32 -0.97396204942808
33 -0.000000480179969
34 -0.000000054797335
35 -0.026445805102268
 Sym=     14.1
 Ene=       0.7860
 Spin= Alpha
 Occup=    0.000000
1 0.056379870062486
2 0.004908935552238
3 -0.093565341767656
4 0.000002640207669
5 -0.000007509454805
6 -0.94282947945564
7 0.000010343886914
8 0.000014521501074
9 1.24184500280298
10 0.096029728163128
11 0.096026983468231
12 -0.19205671163136
13 -0.000000267523076
14 0.000002339345587
15 -0.000001500498267
16 0.77772341787917
17 -0.72083308955366
18 0.094929900466151
19 0.012233224011813
20 -0.035417947528165
21 0.77774033355092
22 -0.72082519084747
23 -0.036868815359646
24 -0.088326662462729
25 -0.035418460039545
26 0.77774365544914
27 -0.72083793182846
28 -0.058057807157463
29 0.076093863351840
30 -0.035419285851380
31 -0.86010323077698
32 1.24580063313629
33 0.000000570653518
34 -0.000000024011548
35 -0.14297091814755
 Sym=     15.1
 Ene=       0.8890
 Spin= Alpha
 Occup=    0.000000
1 0.000001862203939
2 0.000007066101546
3 -0.000008868438663
4 -0.28474376198505
5 1.22409606402767
6 -0.000007940391224
7 0.52366044810137
8 -2.25118219968491
9 0.000013766696455
10 -0.044625813896436
11 0.044626636399592
12 -0.000000822503156
13 0.32777146481480
14 0.010548923932907
15 -0.045354108660064
16 0.060773089125697
17 -0.20116217372898
18 0.019489222368738
19 0.071220691626400
20 0.002637141572277
21 0.49210015150806
22 -1.62894344412555
23 -0.12562037941318
24 -0.19704989179147
25 0.021356729140661
26 -0.55286611812413
27 1.83010255690215
28 0.17926762684505
29 -0.18857914045263
30 -0.023992308803580
31 0.000000335875966
32 0.000000512463124
33 0.003046438970047
34 -0.013097049281506
35 -0.000000860660524
 Sym=     16.1
 Ene=       0.8890
 Spin= Alpha
 Occup=    0.000000
1 -0.000002013510899
2 -0.000008586059819
3 0.000011493098226
4 1.22409339532510
5 0.28474248422746
6 0.000007549142066
7 -2.25118638917710
8 -0.52365922705349
9 -0.000013310061886
10 -0.28385637866479
11 0.28385728243178
12 -0.000000903766998
13 -0.051528539325634
14 -0.045359273537052
15 -0.010552393084589
16 -0.60331255442629
17 1.99708329372454
18 -0.28082840263299
19 -0.029268809388339
20 -0.026185446295341
21 0.35428925419532
22 -1.17275979622908
23 -0.012556872212134
24 -0.17437712478409
25 0.015376398439340
26 0.24903282137290
27 -0.82433783738115
28 -0.021026546251541
29 0.13050923340918
30 0.010806939716987
31 -0.000004422479744
32 0.000004927750745
33 -0.013097279224378
34 -0.003046762029827
35 0.000000278731884
 Sym=     17.1
 Ene=       1.0544
 Spin= Alpha
 Occup=    0.000000
1 0.78543005177999
2 3.56942114699031
3 -5.96768713923990
4 -0.000000884577099
5 -0.000001008250298
6 0.022929710924280
7 0.000005722535263
8 0.000004868055384
9 -0.12783831645503
10 -0.015020851507433
11 -0.015012195849634
12 0.030033047357067
13 -0.000002156038819
14 -0.000001189301597
15 0.000000194161776
16 0.14046934124137
17 0.85010200798694
18 -0.17731637262646
19 -0.022850724769701
20 -0.031192430426175
21 0.14047315728594
22 0.85009643091448
23 0.068869548134325
24 0.16498353769836
25 -0.031190442141205
26 0.14047378958085
27 0.85008769325617
28 0.10844646952317
29 -0.14213260302673
30 -0.031188999246479
31 -0.024909771978798
32 0.10556084464764
33 -0.000000088029078
34 0.000000118278514
35 -0.17159441823796
 Sym=     18.1
 Ene=       1.2062
 Spin= Alpha
 Occup=    0.000000
1 0.000000691512497
2 0.000003069047395
3 -0.000004775871993
4 -0.019462774622225
5 -0.001043880804398
6 -0.000000634791769
7 -0.044093905612002
8 -0.002365195469373
9 0.000000738073282
10 -0.072848947652090
11 0.072842608536195
12 0.000006339115895
13 -0.028892325544784
14 0.61845702249595
15 0.033170692239316
16 0.053319836408698
17 -0.015228960252430
18 -0.019641891713668
19 -0.008260487337559
20 0.40498026766878
21 -0.023209852800530
22 0.006630214180658
23 0.059981609691893
24 -0.034724472931034
25 -0.17628697141078
26 -0.030109760017255
27 0.008601094214274
28 0.043088195298684
29 0.047459770859711
30 -0.22869723471027
31 0.000002325030632
32 -0.000002806348019
33 -0.027178648570879
34 -0.001457717019480
35 0.000000531790815
 Sym=     19.1
 Ene=       1.2062
 Spin= Alpha
 Occup=    0.000000
1 0.000000065479487
2 0.000000241797409
3 -0.000000409047035
4 0.001043886404728
5 -0.019462200562577
6 0.000000930459858
7 0.002364751668021
8 -0.044092647368697
9 -0.000000304179548
10 -0.025022711086202
11 0.025027494387726
12 -0.000004783301524
13 0.084104360021507
14 -0.033172218600050
15 0.61846034961888
16 0.003984153228377
17 -0.001138092588421
18 -0.011245345892805
19 0.075257083260394
20 0.030258263572828
21 -0.048166320254140
22 0.013757512460903
23 -0.037702738605183
24 -0.004363438538090
25 -0.36585437996346
26 0.044182947961803
27 -0.012620055751076
28 0.044473532046530
29 0.012533086575966
30 0.33559589924157
31 -0.000001418700603
32 0.000001875292206
33 0.001457782367947
34 -0.027178810681740
35 -0.000000805601794
 Sym=     20.1
 Ene=       1.5233
 Spin= Alpha
 Occup=    0.000000
1 0.000000597118615
2 0.000002711774759
3 -0.000004960876454
4 0.069406280981039
5 0.006343556382129
6 0.000000416766860
7 0.086744570083064
8 0.007926544303770
9 0.000000320076804
10 0.087111046376526
11 -0.087112786552602
12 0.000001740176076
13 0.030384384370306
14 0.022328740647091
15 0.002041106680886
16 -0.19830307135054
17 0.056842411517925
18 -0.045547311631833
19 -0.001907703314289
20 0.043057940875533
21 0.092790470334358
22 -0.026597060343772
23 -0.094752277141381
24 0.016524002422283
25 -0.020148577212275
26 0.10551310418409
27 -0.030242428646941
28 -0.086113161744189
29 -0.035308029565523
30 -0.022910871433080
31 0.000000725731788
32 -0.000000855922872
33 0.97314251845166
34 0.088934925968516
35 -0.000000242547854
 Sym=     21.1
 Ene=       1.5233
 Spin= Alpha
 Occup=    0.000000
1 0.000000258166397
2 0.000001226108244
3 -0.000001840101418
4 0.006342382479425
5 -0.069405641033822
6 0.000000378318612
7 0.007927617226074
8 -0.086734635039094
9 0.000000183563712
10 -0.026312758778424
11 0.026312171550143
12 0.000000587228282
13 0.10058554458536
14 0.002039951992159
15 -0.022326969054730
16 0.007345477556991
17 -0.002105946784551
18 -0.011886011333113
19 0.10539661811767
20 -0.001595475890247
21 -0.17539899474768
22 0.050277553439318
23 -0.030312537764026
24 0.056185319469406
25 0.038085705331762
26 0.16805337324588
27 -0.048170350955455
28 0.021507433006017
29 0.064824192045656
30 -0.036491260694084
31 0.000000382035218
32 -0.000000455773079
33 0.088935036000592
34 -0.97314402002905
35 0.000000101062900
 Sym=     22.1
 Ene=       1.6113
 Spin= Alpha
 Occup=    0.000000
1 0.000000001767728
2 0.000000007430457
3 -0.000000012418623
4 -0.000001237464266
5 0.000002729092308
6 -0.000000003466504
7 0.000011643281671
8 -0.000042575185634
9 0.000000003024499
10 -0.000002182776650
11 0.000002182053789
12 0.000000000722861
13 0.000019166158681
14 0.000000604098487
15 -0.000002591729343
16 -0.000005633894605
17 0.000000754997278
18 -0.075954457343343
19 0.58939279184158
20 -0.000002322508164
21 -0.000038547146120
22 0.000009891851607
23 0.54838279453853
24 -0.22890283315999
25 0.000008292628277
26 0.000044188563055
27 -0.000010647711840
28 -0.47243687201940
29 -0.36045578288745
30 -0.000005965470655
31 -0.000000000863963
32 0.000000001791178
33 -0.000004190119184
34 0.000016325330078
35 0.000000007247637
 Sym=     23.1
 Ene=       1.6121
 Spin= Alpha
 Occup=    0.000000
1 0.22571060116565
2 0.95576481828600
3 -1.56495095944042