
 Primary working directories    : /data/scratch
 Secondary working directories  : /data/scratch
 Wavefunction directory         : /home/carlo/wfu/
 Main file repository           : /data/scratch/

 ARCHNAME  : Linux/x86_64
 FC        : /opt/intel/composer_xe_2013_sp1.1.106/bin/intel64/ifort
 FCVERSION : 14.0.1
 BLASLIB   : -Wl,-_start-group /opt/intel/mkl/lib/intel64/libmkl_intel_ilp64.a /opt/intel/mkl/lib/intel64/libmkl_sequential.a /opt/intel/mkl/lib/intel64/libmkl_core.a -Wl,-_end-group
 id        : polimi

 Nodes     nprocs
 tt106        4
 ga_uses_ma=false, calling ma_init with nominal heap.
 GA-space will be limited to   8.0 MW (determined by -G option)

 Using customized tuning parameters: mindgm=16; mindgv=24; mindgc=8; mindgr=1; noblas=0; mincuda=1000; minvec=7
 default implementation of scratch files=sf  

  memory,        1000 ,m
  memory,500,m
  geometry={angstrom
   c1
   c2 c1 rcc1
   h3 c2 rcc2 c1 accc1
   h4 c2 rcc3 c1 ahcc1 h3 b1
   h5 c1 rch1 c2 ahcc2 h3 b2
   h6 c1 rch2 c2 ahcc3 h5 b3
  }
  RCC1                           =    1.3212999999999999
  RCC2                           =    1.0825000000000000
  RCC3                           =    1.0825000000000000
  RCH1                           =    1.0825000000000000
  RCH2                           =    1.0825000000000000
  ACCC1                          =    121.62090000000001
  AHCC1                          =    121.62090000000001
  AHCC2                          =    121.62170000000000
  AHCC3                          =    121.62170000000000
  B1                             =    179.99390000000000
  B2                             =    180.00129999999999
  B3                             =    180.00319999999999
 
  SET,SPIN=           0
 
                                                                                 !closed shell input
  basis=aug-cc-pvtz
  hf
  ccsd(t)
  en_cc=energy
 
  gdirect
  basis=aug-cc-pvtz
  hf
  df-mp2
  en_mp2_tz=energy
 
  basis=aug-cc-pvqz
  hf
  df-mp2
  en_mp2_qz=energy
  put,molden,molpro.molden
 
  CBSen = en_cc+en_mp2_qz-en_mp2_tz
 

 Variables initialized (661), CPU time= 0.00 sec
 Commands  initialized (458), CPU time= 0.01 sec, 486 directives.
 Default parameters read. Elapsed time= 0.05 sec

 Checking input...
 Passed
1


                                         ***  PROGRAM SYSTEM MOLPRO  ***
                         Copyright, University College Cardiff Consultants Limited, 2008

                                    Version 2010.1 linked Nov 28 2013 00:29:07


 **********************************************************************************************************************************
 LABEL *                                                                                 
 Linux-2.6.34-12-desktop/tt106(x86_64) 64 bit mpp version                                DATE: 06-Sep-19          TIME: 00:24:50  
 **********************************************************************************************************************************

 SHA1:             3e0dedb5ca8b4ac28d83a6c404202848d09e924a
 **********************************************************************************************************************************

 Turning off symmetry in density fitting calculation
 To re-enable, use 'set,zsymel=auto'

 SETTING RCC1           =         1.32130000                                  
 SETTING RCC2           =         1.08250000                                  
 SETTING RCC3           =         1.08250000                                  
 SETTING RCH1           =         1.08250000                                  
 SETTING RCH2           =         1.08250000                                  
 SETTING ACCC1          =       121.62090000                                  
 SETTING AHCC1          =       121.62090000                                  
 SETTING AHCC2          =       121.62170000                                  
 SETTING AHCC3          =       121.62170000                                  
 SETTING B1             =       179.99390000                                  
 SETTING B2             =       180.00130000                                  
 SETTING B3             =       180.00320000                                  
 SETTING SPIN           =         0.00000000                                  

 Variable memory set to  500000000 words,  buffer space   230000 words

 SETTING BASIS          =    AUG-CC-PVTZ


 Recomputing integrals since basis changed


 Using spherical harmonics

 Library entry C      S aug-cc-pVTZ          selected for orbital group  1
 Library entry C      P aug-cc-pVTZ          selected for orbital group  1
 Library entry C      D aug-cc-pVTZ          selected for orbital group  1
 Library entry C      F aug-cc-pVTZ          selected for orbital group  1
 Library entry H      S aug-cc-pVTZ          selected for orbital group  2
 Library entry H      P aug-cc-pVTZ          selected for orbital group  2
 Library entry H      D aug-cc-pVTZ          selected for orbital group  2

1PROGRAM * SEWARD (Integral evaluation for generally contracted gaussian basis sets)     Author: Roland Lindh, 1990

 Geometry written to block  1 of record 700

 Orientation using atomic masses  
 Molecule type: Asymmetric top
 Rotational constants:      25.2787915     30.5061028    147.5246781 GHz  (calculated with average atomic masses)

 Point group  C1  



 ATOMIC COORDINATES

 NR  ATOM    CHARGE       X              Y              Z

   1  C1      6.00   -0.000010791   -0.000000000   -1.248445821
   2  C2      6.00    0.000017126   -0.000000000    1.248449316
   3  H3      1.00   -0.000061329    1.741925810    2.320965320
   4  H4      1.00   -0.000065890   -1.741925810    2.320965320
   5  H5      1.00    0.000028141   -1.741910837   -2.320986146
   6  H6      1.00    0.000023581    1.741910837   -2.320986146

 Bond lengths in Bohr (Angstrom)

 1-2  2.496895137  1-5  2.045628537  1-6  2.045628537  2-3  2.045628537  2-4  2.045628537
     ( 1.321300000)     ( 1.082500000)     ( 1.082500000)     ( 1.082500000)     ( 1.082500000)

 Bond angles

  1-2-3  121.62090000   1-2-4  121.62090000   2-1-5  121.62170000   2-1-6  121.62170000

  3-2-4  116.75819974   5-1-6  116.75659993

 NUCLEAR CHARGE:                   16
 NUMBER OF PRIMITIVE AOS:         242
 NUMBER OF SYMMETRY AOS:          216
 NUMBER OF CONTRACTIONS:          184   ( 184A   )
 NUMBER OF CORE ORBITALS:           2   (   2A   )
 NUMBER OF VALENCE ORBITALS:       12   (  12A   )


 NUCLEAR REPULSION ENERGY   33.54239847


 Eigenvalues of metric

         1 0.473E-05 0.285E-04 0.332E-04 0.642E-04 0.110E-03 0.112E-03 0.156E-03 0.249E-03


 Contracted 2-electron integrals neglected if value below      1.0D-12
 AO integral compression algorithm  1   Integral accuracy      1.0D-12

     674.234 MB (compressed) written to integral file ( 49.7%)

     Node minimum: 150.733 MB, node maximum: 184.025 MB


 NUMBER OF SORTED TWO-ELECTRON INTEGRALS:   36218560.     BUFFER LENGTH:  32768
 NUMBER OF SEGMENTS:   3  SEGMENT LENGTH:   15989512      RECORD LENGTH: 524288

 Memory used in sort:      16.55 MW

 SORT1 READ   169623812. AND WROTE    34303908. INTEGRALS IN     99 RECORDS. CPU TIME:     2.93 SEC, REAL TIME:     3.37 SEC
 SORT2 READ   137141281. AND WROTE   144848710. INTEGRALS IN   2660 RECORDS. CPU TIME:     0.91 SEC, REAL TIME:     1.15 SEC

 Node minimum:    36205795.  Node maximum:    36218560. integrals

 OPERATOR DM      FOR CENTER  0  COORDINATES:    0.000000    0.000000    0.000000


 **********************************************************************************************************************************
 DATASETS  * FILE   NREC   LENGTH (MB)   RECORD NAMES
              1      18        3.89       500      610      700      900      950      970     1000      129      960     1100   
                                          VAR    BASINP    GEOM    SYMINP    ZMAT    AOBASIS   BASIS     P2S    ABASIS      S 
                                         1400     1410     1200     1210     1080     1600     1650     1700   
                                           T        V       H0       H01     AOSYM     SMH    MOLCAS    OPER   

 PROGRAMS   *        TOTAL       INT
 CPU TIMES  *         5.99      5.91
 REAL TIME  *         8.07 SEC
 DISK USED  *         2.30 GB      
 GA USED    *         0.00 MB       (max)       0.00 MB       (current)
 **********************************************************************************************************************************

1PROGRAM * RHF-SCF (CLOSED SHELL)       Authors: W. Meyer, H.-J. Werner


 NUMBER OF ELECTRONS:       8+    8-    SPACE SYMMETRY=1    SPIN SYMMETRY: Singlet 
 CONVERGENCE THRESHOLDS:    1.00E-05 (Density)    1.00E-07 (Energy)
 MAX. NUMBER OF ITERATIONS:       60
 INTERPOLATION TYPE:            DIIS
 INTERPOLATION STEPS:              2 (START)      1 (STEP)
 LEVEL SHIFTS:                  0.00 (CLOSED)  0.00 (OPEN) 



 Orbital guess generated from atomic densities. Full valence occupancy:   14

 Molecular orbital dump at record        2100.2

 ITERATION    DDIFF          GRAD             ENERGY        2-EL.EN.            DIPOLE MOMENTS         DIIS
    1      0.000D+00      0.000D+00       -78.04098183    118.705703   -0.00001    0.00000   -0.00000    0
    2      0.000D+00      0.195D-02       -78.06228167    117.048812   -0.00001    0.00000   -0.00000    1
    3      0.463D-02      0.699D-03       -78.06466984    117.710458   -0.00001    0.00000   -0.00000    2
    4      0.128D-02      0.196D-03       -78.06499942    117.577523   -0.00001    0.00000   -0.00000    3
    5      0.589D-03      0.241D-04       -78.06500527    117.584042   -0.00001    0.00000   -0.00000    4
    6      0.750D-04      0.393D-05       -78.06500548    117.583404   -0.00001    0.00000   -0.00000    5
    7      0.904D-05      0.902D-06       -78.06500549    117.583405   -0.00001    0.00000   -0.00000    6
    8      0.275D-05      0.251D-06       -78.06500549    117.583412   -0.00001    0.00000   -0.00000    0

 Final occupancy:   8

 !RHF STATE 1.1 Energy                -78.065005494079
 Nuclear energy                        33.54239847
 One-electron energy                 -170.39910988
 Two-electron energy                   58.79170591
 Virial quotient                       -1.00131947
 !RHF STATE 1.1 Dipole moment          -0.00001420     0.00000000    -0.00000310
 Dipole moment /Debye                  -0.00003610     0.00000000    -0.00000787

 Orbital energies:

         1.1          2.1          3.1          4.1          5.1          6.1          7.1          8.1          9.1         10.1
    -11.229736   -11.227911    -1.037593    -0.792091    -0.644555    -0.590565    -0.505475    -0.379922     0.032488     0.040596


 **********************************************************************************************************************************
 DATASETS  * FILE   NREC   LENGTH (MB)   RECORD NAMES
              1      18        3.89       500      610      700      900      950      970     1000      129      960     1100   
                                          VAR    BASINP    GEOM    SYMINP    ZMAT    AOBASIS   BASIS     P2S    ABASIS      S 
                                         1400     1410     1200     1210     1080     1600     1650     1700   
                                           T        V       H0       H01     AOSYM     SMH    MOLCAS    OPER   

              2       3        1.03       700     1000     2100   
                                         GEOM     BASIS     RHF  

 PROGRAMS   *        TOTAL        HF       INT
 CPU TIMES  *        10.54      4.55      5.91
 REAL TIME  *        13.59 SEC
 DISK USED  *         2.33 GB      
 SF USED    *         0.14 MB      
 GA USED    *         0.00 MB       (max)       0.00 MB       (current)
 **********************************************************************************************************************************


1PROGRAM * CCSD (Closed-shell coupled cluster)     Authors: C. Hampel, H.-J. Werner, 1991, M. Deegan, P.J. Knowles, 1992


 Convergence thresholds:  THRVAR = 1.00D-08  THRDEN = 1.00D-06

 CCSD(T)     terms to be evaluated (factor= 1.000)


 Number of core orbitals:           2 (   2 )
 Number of closed-shell orbitals:   6 (   6 )
 Number of external orbitals:     176 ( 176 )

 Molecular orbitals read from record     2100.2  Type=RHF/CANONICAL (state 1.1)

 Number of N-1 electron functions:               6
 Number of N-2 electron functions:              21
 Number of singly external CSFs:              1056
 Number of doubly external CSFs:            558096
 Total number of CSFs:                      559153

 Length of J-op  integral file:               0.00 MB
 Length of K-op  integral file:               2.34 MB
 Length of 3-ext integral record:             0.00 MB

 Memory could be reduced to 48.43 Mwords without degradation in triples

 Integral transformation finished. Total CPU:   4.83 sec, npass=  1  Memory used:  23.85 MW

 Reference energy:                    -78.06500549

 MP2 singlet pair energy:              -0.23204851
 MP2 triplet pair energy:              -0.10730985
 MP2 correlation energy:               -0.33935835
 MP2 total energy:                    -78.40436385

 SCS-MP2 correlation energy:           -0.34522878   (PS=  1.200000  PT=  0.333333)
 SCS-MP2 total energy:                -78.41023427

 ITER.      SQ.NORM     CORR.ENERGY   TOTAL ENERGY   ENERGY CHANGE        DEN1      VAR(S)    VAR(P)  DIIS     TIME
   1      1.12532890    -0.36080286   -78.42580836    -0.02144451    -0.01185516  0.13D-02  0.19D-02  1  1     6.84
   2      1.13568987    -0.36284723   -78.42785273    -0.00204437    -0.00907961  0.31D-04  0.31D-03  2  2     8.92
   3      1.14012861    -0.36303610   -78.42804159    -0.00018887    -0.00217122  0.11D-04  0.33D-04  3  3    11.00
   4      1.14198507    -0.36309605   -78.42810154    -0.00005994    -0.00054088  0.79D-06  0.28D-05  4  4    13.09
   5      1.14241396    -0.36309723   -78.42810273    -0.00000119    -0.00008167  0.88D-07  0.19D-06  5  5    15.19
   6      1.14247806    -0.36309464   -78.42810014     0.00000259    -0.00000834  0.86D-08  0.11D-07  6  6    17.29
   7      1.14248413    -0.36309479   -78.42810028    -0.00000015     0.00000033  0.68D-09  0.79D-09  6  2    19.41
   8      1.14248516    -0.36309486   -78.42810035    -0.00000007    -0.00000000  0.11D-09  0.51D-10  6  1    21.54

 Norm of t1 vector:      0.05186100      S-energy:    -0.00000004      T1 diagnostic:  0.01058608
                                                                       D1 diagnostic:  0.03062108

 Doubles amplitudes (print threshold =  0.500E-01):

         I         J         SYM. A    SYM. B    A         B      T(IJ, AB)

         6         6         1         1        12        12     -0.08195106


 Total CPU time for triples:     21.48 sec


 RESULTS
 =======

  Reference energy                    -78.065005494079
  CCSD singlet pair energy             -0.264283632240
  CCSD triplet pair energy             -0.098811190675
  CCSD correlation energy              -0.363094859541

  Triples (T) contribution             -0.015355134981
  Total correlation energy             -0.378449994522

  CCSD total energy                   -78.428100353621
  CCSD[T] energy                      -78.443846792684
  CCSD-T energy                       -78.443299524070
 !CCSD(T) total energy                -78.443455488601

 Timing summary (sec):

 STEP                 CPU(USER)    SYS     CPU(TOT)    WALL
 Transformation          4.86      0.27      5.13      5.20
 CCSD iterations        16.68      0.59     17.27     18.14
 Triples                21.48      0.16     21.64     21.80

 Program statistics:

 Available memory in ccsd:               499999756
 Min. memory needed in ccsd:               1936289
 Max. memory used in ccsd:                 2387297
 Max. memory used in cckext:               1692347 ( 8 integral passes)



 **********************************************************************************************************************************
 DATASETS  * FILE   NREC   LENGTH (MB)   RECORD NAMES
              1      19      144.60       500      610      700      900      950      970     1000      129      960     1100   
                                          VAR    BASINP    GEOM    SYMINP    ZMAT    AOBASIS   BASIS     P2S    ABASIS      S 
                                         1400     1410     1200     1210     1080     1600     1650     1700     1380   
                                           T        V       H0       H01     AOSYM     SMH    MOLCAS    OPER     JKOP   

              2       3        1.03       700     1000     2100   
                                         GEOM     BASIS     RHF  

 PROGRAMS   *        TOTAL   CCSD(T)        HF       INT
 CPU TIMES  *        53.58     43.04      4.55      5.91
 REAL TIME  *        58.95 SEC
 DISK USED  *         2.53 GB      
 SF USED    *       193.34 MB      
 GA USED    *         0.00 MB       (max)       0.00 MB       (current)
 **********************************************************************************************************************************
 SETTING EN_CC          =       -78.44345549  AU                              
 SETTING BASIS          =    AUG-CC-PVTZ

1PROGRAM * RHF-SCF (CLOSED SHELL)       Authors: W. Meyer, H.-J. Werner


 NUMBER OF ELECTRONS:       8+    8-    SPACE SYMMETRY=1    SPIN SYMMETRY: Singlet 
 CONVERGENCE THRESHOLDS:    1.00E-05 (Density)    1.00E-07 (Energy)
 INTEGRAL THRESHOLDS:       1.00E-12 (Initial)    1.00E-12 (Final)
 MAX. NUMBER OF ITERATIONS:       60
 INTERPOLATION TYPE:            DIIS
 INTERPOLATION STEPS:              2 (START)      1 (STEP)
 LEVEL SHIFTS:                  0.00 (CLOSED)  0.00 (OPEN) 



 Molecular orbitals read from record     2100.2  Type=RHF/CANONICAL (state 1.1)

 Molecular orbital dump at record        2101.2

 Direct Fock-matrix evaluation.        Authors: Roland Lindh & Martin Schuetz (1993/96)

 Integral Threshold:                  0.1D-11
 Threshold for writing integrals:     0.1D-06
 Prescreening on density matrix:        ON 
 Calculation will be performed fully direct        

 ITERATION   DDIFF            GRAD            ENERGY        2-EL.EN.            DIPOLE MOMENTS         DIIS   CPU(IT)  CPU(TOT)
    1      0.000D+00      0.000D+00       -78.06500549    117.583412   -0.00001    0.00000   -0.00000    0      2.9      2.9   diag  
    2      0.000D+00      0.378D-05       -78.06500549    117.583408   -0.00001    0.00000   -0.00000    0      2.3      5.2   orth  

 Final occupancy:   8

 !RHF STATE 1.1 Energy                -78.065005494150
 Nuclear energy                        33.54239847
 One-electron energy                 -170.39910781
 Two-electron energy                   58.79170385
 Virial quotient                       -1.00131951
 !RHF STATE 1.1 Dipole moment          -0.00001420     0.00000000    -0.00000305
 Dipole moment /Debye                  -0.00003610     0.00000000    -0.00000775

 Orbital energies:

         1.1          2.1          3.1          4.1          5.1          6.1          7.1          8.1          9.1         10.1
    -11.229736   -11.227911    -1.037594    -0.792092    -0.644555    -0.590565    -0.505476    -0.379922     0.032488     0.040596


 **********************************************************************************************************************************
 DATASETS  * FILE   NREC   LENGTH (MB)   RECORD NAMES
              1      19      144.60       500      610      700      900      950      970     1000      129      960     1100   
                                          VAR    BASINP    GEOM    SYMINP    ZMAT    AOBASIS   BASIS     P2S    ABASIS      S 
                                         1400     1410     1200     1210     1080     1600     1650     1700     1380   
                                           T        V       H0       H01     AOSYM     SMH    MOLCAS    OPER     JKOP   

              2       4        2.43       700     1000     2100     2101   
                                         GEOM     BASIS     RHF      RHF  

 PROGRAMS   *        TOTAL        HF   CCSD(T)        HF       INT
 CPU TIMES  *        58.78      5.19     43.04      4.55      5.91
 REAL TIME  *        65.57 SEC
 DISK USED  *         2.53 GB      
 SF USED    *       193.34 MB      
 GA USED    *         0.00 MB       (max)       0.00 MB       (current)
 **********************************************************************************************************************************


1PROGRAM * MP2 (Closed-shell)     Authors: C. Hampel, H.-J. Werner, 1991, M. Deegan, P.J. Knowles, 1992

 Basis set AUG-CC-PVTZ/MP2FIT generated. Number of basis functions:   396 

 Convergence thresholds:  THRVAR = 1.00D-08  THRDEN = 1.00D-06

 Number of core orbitals:           2 (   2 )
 Number of closed-shell orbitals:   6 (   6 )
 Number of external orbitals:     176 ( 176 )

 Molecular orbitals read from record     2101.2  Type=RHF/CANONICAL (state 1.1)
 

 Entering DF-MP2

 Thresholds:    THRAO= 0.100D-09    THRMO= 0.100D-08    THROV= 0.100D-11    THRPROD= 0.100D-08

 Fitting basis: AUG-CC-PVTZ-MP2F
 Number of fitting functions:              396

 Minimum memory with paging:              1.24 MW
 Minimum memory for incore algorithm:     1.72 MW
 Memory for 3-index integrals:            0.00 MW

 Disk space for H1-integrals:             3.54 MB (   2 records)

 SCS-MP2 correlation energy:           -0.345154310454   (PS=  1.200000  PT=  0.333333)
 SCS-MP2 total energy:                -78.410159804605

 Norm of first-order wave function:     0.088319582371
 Coefficient of reference function:     0.958565464859

  Reference energy                    -78.065005494151
  MP2 singlet pair energy              -0.231963693908
  MP2 triplet pair energy              -0.107353732121
  MP2 correlation energy               -0.339317426029

 !MP2 total energy                    -78.404322920180


 **********************************************************************************************************************************
 DATASETS  * FILE   NREC   LENGTH (MB)   RECORD NAMES
              1      20      144.61       500      610      700      900      950      970     1000      129      960     1100   
                                          VAR    BASINP    GEOM    SYMINP    ZMAT    AOBASIS   BASIS     P2S    ABASIS      S 
                                         1400     1410     1200     1210     1080     1600     1650     1700     1380      960(1)
                                           T        V       H0       H01     AOSYM     SMH    MOLCAS    OPER     JKOP    ABASIS    

              2       4        2.43       700     1000     2100     2101   
                                         GEOM     BASIS     RHF      RHF  

 PROGRAMS   *        TOTAL       MP2        HF   CCSD(T)        HF       INT
 CPU TIMES  *        59.24      0.45      5.19     43.04      4.55      5.91
 REAL TIME  *        66.66 SEC
 DISK USED  *         2.53 GB      
 SF USED    *       193.34 MB      
 GA USED    *         0.00 MB       (max)       0.00 MB       (current)
 **********************************************************************************************************************************
 SETTING EN_MP2_TZ      =       -78.40432292  AU                              
 SETTING BASIS          =    AUG-CC-PVQZ


 Recomputing integrals since basis changed


 Using spherical harmonics

 Library entry C      S aug-cc-pVQZ          selected for orbital group  1
 Library entry C      P aug-cc-pVQZ          selected for orbital group  1
 Library entry C      D aug-cc-pVQZ          selected for orbital group  1
 Library entry C      F aug-cc-pVQZ          selected for orbital group  1
 Library entry C      G aug-cc-pVQZ          selected for orbital group  1
 Library entry H      S aug-cc-pVQZ          selected for orbital group  2
 Library entry H      P aug-cc-pVQZ          selected for orbital group  2
 Library entry H      D aug-cc-pVQZ          selected for orbital group  2
 Library entry H      F aug-cc-pVQZ          selected for orbital group  2

1PROGRAM * SEWARD (Integral evaluation for generally contracted gaussian basis sets)     Author: Roland Lindh, 1990

 Geometry written to block  1 of record 700

 Orientation using atomic masses  
 Molecule type: Asymmetric top
 Rotational constants:      25.2787915     30.5061028    147.5246781 GHz  (calculated with average atomic masses)

 Point group  C1  



 ATOMIC COORDINATES

 NR  ATOM    CHARGE       X              Y              Z

   1  C1      6.00   -0.000010791   -0.000000000   -1.248445821
   2  C2      6.00    0.000017126   -0.000000000    1.248449316
   3  H3      1.00   -0.000061329    1.741925810    2.320965320
   4  H4      1.00   -0.000065890   -1.741925810    2.320965320
   5  H5      1.00    0.000028141   -1.741910837   -2.320986146
   6  H6      1.00    0.000023581    1.741910837   -2.320986146

 Bond lengths in Bohr (Angstrom)

 1-2  2.496895137  1-5  2.045628537  1-6  2.045628537  2-3  2.045628537  2-4  2.045628537
     ( 1.321300000)     ( 1.082500000)     ( 1.082500000)     ( 1.082500000)     ( 1.082500000)

 Bond angles

  1-2-3  121.62090000   1-2-4  121.62090000   2-1-5  121.62170000   2-1-6  121.62170000

  3-2-4  116.75819974   5-1-6  116.75659993

 NUCLEAR CHARGE:                   16
 NUMBER OF PRIMITIVE AOS:         464
 NUMBER OF SYMMETRY AOS:          378
 NUMBER OF CONTRACTIONS:          344   ( 344A   )
 NUMBER OF CORE ORBITALS:           2   (   2A   )
 NUMBER OF VALENCE ORBITALS:       12   (  12A   )


 NUCLEAR REPULSION ENERGY   33.54239847


 Eigenvalues of metric

         1 0.284E-05 0.762E-05 0.864E-05 0.136E-04 0.203E-04 0.227E-04 0.302E-04 0.357E-04


 OPERATOR DM      FOR CENTER  0  COORDINATES:    0.000000    0.000000    0.000000


 **********************************************************************************************************************************
 DATASETS  * FILE   NREC   LENGTH (MB)   RECORD NAMES
              1      18        7.00       500      610      700      900      950      970     1001      129      960     1100   
                                          VAR    BASINP    GEOM    SYMINP    ZMAT    AOBASIS   BASIS     P2S    ABASIS      S 
                                         1400     1410     1200     1210     1080     1600     1650     1700   
                                           T        V       H0       H01     AOSYM     SMH    MOLCAS    OPER   

              2       5        3.17       700     1000     2100     2101     1001   
                                         GEOM     BASIS     RHF      RHF     BASIS   

 PROGRAMS   *        TOTAL       INT       MP2        HF   CCSD(T)        HF       INT
 CPU TIMES  *        59.42      0.18      0.45      5.19     43.04      4.55      5.91
 REAL TIME  *        67.55 SEC
 DISK USED  *         2.95 GB      
 SF USED    *       193.34 MB      
 GA USED    *         0.00 MB       (max)       0.00 MB       (current)
 **********************************************************************************************************************************

1PROGRAM * RHF-SCF (CLOSED SHELL)       Authors: W. Meyer, H.-J. Werner


 NUMBER OF ELECTRONS:       8+    8-    SPACE SYMMETRY=1    SPIN SYMMETRY: Singlet 
 CONVERGENCE THRESHOLDS:    1.00E-05 (Density)    1.00E-07 (Energy)
 INTEGRAL THRESHOLDS:       1.00E-12 (Initial)    1.00E-12 (Final)
 MAX. NUMBER OF ITERATIONS:       60
 INTERPOLATION TYPE:            DIIS
 INTERPOLATION STEPS:              2 (START)      1 (STEP)
 LEVEL SHIFTS:                  0.00 (CLOSED)  0.00 (OPEN) 



 Molecular orbitals read from record     2101.2  Type=RHF/CANONICAL (state 1.1)
 
 Present basis size:     344
 Previous basis size:    184
 Previous occupation:      8
 Previous closed-shells:   8
 Previous core-orbitals:   2
 Present occupation:       8
 Present closed-shells:    8
 Present core-orbitals:    2
 Wavefunction symmetry:    1   Singlet 

 Orbital overlap <old|new>:  < 1.1| 1.1> = 0.999999   < 2.1| 2.1> = 0.999999   < 3.1| 3.1> = 0.999995   < 4.1| 4.1> = 0.999995
                             < 5.1| 5.1> = 0.999993   < 6.1| 6.1> = 0.999989   < 7.1| 7.1> = 0.999993   < 8.1| 8.1> = 0.999983

 Molecular orbital dump at record        2102.2

 Direct Fock-matrix evaluation.        Authors: Roland Lindh & Martin Schuetz (1993/96)

 Integral Threshold:                  0.1D-11
 Threshold for writing integrals:     0.1D-06
 Prescreening on density matrix:        ON 
 Calculation will be performed fully direct        

 ITERATION   DDIFF            GRAD            ENERGY        2-EL.EN.            DIPOLE MOMENTS         DIIS   CPU(IT)  CPU(TOT)
    1      0.000D+00      0.000D+00       -78.06891407    117.582595   -0.00001    0.00000   -0.00000    0     27.3     27.6   diag  
    2      0.000D+00      0.482D-03       -78.06971341    117.609411   -0.00001    0.00000   -0.00000    1     26.4     54.0   diag  
    3      0.312D-02      0.253D-04       -78.06971725    117.596714   -0.00001    0.00000   -0.00000    2     26.2     80.2   diag  
    4      0.564D-03      0.247D-05       -78.06971734    117.602372   -0.00001    0.00000   -0.00000    3     25.5    105.8   diag  
    5      0.636D-04      0.857D-06       -78.06971735    117.600897   -0.00001    0.00000   -0.00000    4     24.9    130.7   diag  
    6      0.118D-04      0.782D-07       -78.06971735    117.600926   -0.00001    0.00000   -0.00000    5     24.3    155.0   diag  
    7      0.178D-05      0.388D-07       -78.06971735    117.600922   -0.00001    0.00000   -0.00000    0     23.3    178.3   orth  

 Final occupancy:   8

 !RHF STATE 1.1 Energy                -78.069717348735
 Nuclear energy                        33.54239847
 One-electron energy                 -170.41257681
 Two-electron energy                   58.80046100
 Virial quotient                       -1.00106761
 !RHF STATE 1.1 Dipole moment          -0.00001416     0.00000000    -0.00000306
 Dipole moment /Debye                  -0.00003599     0.00000000    -0.00000778

 Orbital energies:

         1.1          2.1          3.1          4.1          5.1          6.1          7.1          8.1          9.1         10.1
    -11.228649   -11.226821    -1.037340    -0.792034    -0.644615    -0.590653    -0.505655    -0.380061     0.029244     0.036246


 **********************************************************************************************************************************
 DATASETS  * FILE   NREC   LENGTH (MB)   RECORD NAMES
              1      18        7.00       500      610      700      900      950      970     1001      129      960     1100   
                                          VAR    BASINP    GEOM    SYMINP    ZMAT    AOBASIS   BASIS     P2S    ABASIS      S 
                                         1400     1410     1200     1210     1080     1600     1650     1700   
                                           T        V       H0       H01     AOSYM     SMH    MOLCAS    OPER   

              2       6        5.58       700     1000     2100     2101     1001     2102   
                                         GEOM     BASIS     RHF      RHF     BASIS     RHF  

 PROGRAMS   *        TOTAL        HF       INT       MP2        HF   CCSD(T)        HF       INT
 CPU TIMES  *       237.82    178.40      0.18      0.45      5.19     43.04      4.55      5.91
 REAL TIME  *       247.21 SEC
 DISK USED  *         2.95 GB      
 SF USED    *       193.34 MB      
 GA USED    *         0.00 MB       (max)       0.00 MB       (current)
 **********************************************************************************************************************************


1PROGRAM * MP2 (Closed-shell)     Authors: C. Hampel, H.-J. Werner, 1991, M. Deegan, P.J. Knowles, 1992

 Basis set AUG-CC-PVQZ/MP2FIT generated. Number of basis functions:   656 

 Convergence thresholds:  THRVAR = 1.00D-08  THRDEN = 1.00D-06

 Number of core orbitals:           2 (   2 )
 Number of closed-shell orbitals:   6 (   6 )
 Number of external orbitals:     336 ( 336 )

 Molecular orbitals read from record     2102.2  Type=RHF/CANONICAL (state 1.1)
 

 Entering DF-MP2

 Thresholds:    THRAO= 0.100D-09    THRMO= 0.100D-08    THROV= 0.100D-11    THRPROD= 0.100D-08

 Fitting basis: AUG-CC-PVQZ-MP2F
 Number of fitting functions:              656

 Minimum memory with paging:              1.76 MW
 Minimum memory for incore algorithm:     3.97 MW
 Memory for 3-index integrals:            0.00 MW

 Disk space for H1-integrals:            11.02 MB (   6 records)

 SCS-MP2 correlation energy:           -0.365722763187   (PS=  1.200000  PT=  0.333333)
 SCS-MP2 total energy:                -78.435440111923

 Norm of first-order wave function:     0.089873223614
 Coefficient of reference function:     0.957881991803

  Reference energy                    -78.069717348735
  MP2 singlet pair energy              -0.247616094495
  MP2 triplet pair energy              -0.110223401453
  MP2 correlation energy               -0.357839495949

 !MP2 total energy                    -78.427556844684


 **********************************************************************************************************************************
 DATASETS  * FILE   NREC   LENGTH (MB)   RECORD NAMES
              1      19        7.01       500      610      700      900      950      970     1001      129      960     1100   
                                          VAR    BASINP    GEOM    SYMINP    ZMAT    AOBASIS   BASIS     P2S    ABASIS      S 
                                         1400     1410     1200     1210     1080     1600     1650     1700      960(1)
                                           T        V       H0       H01     AOSYM     SMH    MOLCAS    OPER    ABASIS    

              2       6        5.58       700     1000     2100     2101     1001     2102   
                                         GEOM     BASIS     RHF      RHF     BASIS     RHF  

 PROGRAMS   *        TOTAL       MP2        HF       INT       MP2        HF   CCSD(T)        HF       INT
 CPU TIMES  *       239.96      2.14    178.40      0.18      0.45      5.19     43.04      4.55      5.91
 REAL TIME  *       249.91 SEC
 DISK USED  *         2.95 GB      
 SF USED    *       193.34 MB      
 GA USED    *         0.00 MB       (max)       0.00 MB       (current)
 **********************************************************************************************************************************
 SETTING EN_MP2_QZ      =       -78.42755684  AU                              

 Dump information in style MOLDEN to molpro.molden                                                                   

 Molecular orbitals read from record     2102.2  Type=RHF/CANONICAL (state 1.1)
 Occupation numbers read from record     2102.2  Type=RHF/RHF (state 1.1)
 Orbital energies read from record       2102.2  Type=RHF/CANONICAL (state 1.1)
 Redundancy group numbers read from rec  2102.2  Type=RHF/RHF (state 1.1)
 
 DUMP ORBITAL  1.1 AS ORBITAL    1  occ=    2.0000  eig=  -11.2286  GROUP=   2
 DUMP ORBITAL  2.1 AS ORBITAL    2  occ=    2.0000  eig=  -11.2268  GROUP=   2
 DUMP ORBITAL  3.1 AS ORBITAL    3  occ=    2.0000  eig=   -1.0373  GROUP=   2
 DUMP ORBITAL  4.1 AS ORBITAL    4  occ=    2.0000  eig=   -0.7920  GROUP=   2
 DUMP ORBITAL  5.1 AS ORBITAL    5  occ=    2.0000  eig=   -0.6446  GROUP=   2
 DUMP ORBITAL  6.1 AS ORBITAL    6  occ=    2.0000  eig=   -0.5907  GROUP=   2
 DUMP ORBITAL  7.1 AS ORBITAL    7  occ=    2.0000  eig=   -0.5057  GROUP=   2
 DUMP ORBITAL  8.1 AS ORBITAL    8  occ=    2.0000  eig=   -0.3801  GROUP=   2

 Total charge:      16.000000

 **********************************************************************************************************************************
 SETTING CBSEN          =       -78.46668941  AU                              

        DF-MP2          HF-SCF          DF-MP2          HF-SCF          CCSD(T)         HF-SCF  
    -78.42755684    -78.06971735    -78.40432292    -78.06500549    -78.44345549    -78.06500549
 **********************************************************************************************************************************
 Variable memory released
