[Molden Format]
[Molpro variables]
_NUMVAR=  700.0000000000000    
_EV2006= 0.3674930886769165E-01
_EV= 0.3674932534394180E-01
_KJOULE= 0.3808798324128737E-03
_KJOULE/MOL= 0.3808798324128737E-03
_CM= 0.4556335267302901E-05
_CM-1= 0.4556335267302901E-05
_KCAL= 0.1593601117815568E-02
_KCAL/MOL= 0.1593601117815568E-02
_KELVIN2006= 0.3166828861084835E-05
_KELVIN= 0.3166814820820034E-05
_HERTZ2006= 0.1519829850815779E-15
_HERTZ= 0.1519829846011223E-15
_HZ2006= 0.1519829850815779E-15
_HZ= 0.1519829846011223E-15
_TOA2006= 0.5291772490000000    
_TOA= 0.5291772090000000    
_TOANG2006= 0.5291772490000000    
_TOANG= 0.5291772090000000    
_TORAD= 0.1745329251994330E-01
_TOCM=  219474.6306700000    
_TODEBYE=  2.541580000000000    
_TOEV2006=  27.21139610000000    
_TOEV=  27.21138390000000    
_TOHERTZ2006=  6579683899900000.    
_TOHERTZ=  6579683920700000.    
_TOHZ2006=  6579683899900000.    
_TOHZ=  6579683920700000.    
_TOK2006=  315773.3000000000    
_TOK=  315774.7000000000    
_TOKCAL=  627.5096000000000    
_TOKELVIN2006=  315773.3000000000    
_TOKELVIN=  315774.7000000000    
_TOKJ=  2625.500000000000    
_TOKJOULE=  2625.500000000000    
_ANG2006=  1.889725988578923    
_ANG=  1.889726131421507    
_ANGSTROM2006=  1.889725988578923    
_ANGSTROM=  1.889726131421507    
_IGNORE_UNDEF=  2.000000000000000    
_STRICTCHECK=  0.000000000000000    
_SEW_ONEEL=  0.000000000000000    
_CPPDONE=FALSE
_DKROLL_DONE=  0.000000000000000    
_FOCKDONE=  0.000000000000000    
_GRADONE=FALSE
_HESSDONE=TRUE
_INTDONE=TRUE
_SCFDONE=FALSE
_MODUL_CUDA=FALSE
_MODUL_SLATER=FALSE
_MODUL_MRCC=FALSE
_MRCC_EXEC=
_FITC_AO_SAVED=FALSE
_FITC_MO_SAVED=FALSE
_SHARED_FS=TRUE
_LSTYP=SEWARD
_INTYP=INTS
_GEOMTYP=ZMAT
_GRADTYP=ALASKA
_DIRECT=FALSE
_SYNCM=  0.000000000000000    
_BASIS=CC-PVDZ
_ZORIENT=  1.000000000000000    
_NELEC=  10.00000000000000    
_SPIN=  0.000000000000000    
!SPIN=  0.000000000000000    
_OPTCONV= 0.2261593122114950E-03
_QSDSTEP=  0.000000000000000    
_QSDIRC=  0.000000000000000    
_PROGRAM=FREQ
_CPUSTEP=  0.000000000000000    
_SYSSTEP=  0.000000000000000    
_WALLSTEP= 0.9000000000000000E-01
!DFMP2=  0.000000000000000    
!DFSCF=  0.000000000000000    
!SCSGRD=  0.000000000000000    
_BASINP=  610.0000000000000    
_CPUTOT=  127.3100000000000    
_DFTEXFAC=  1.000000000000000    
_DMX=-0.5886601824856712E-05
_DMY=-0.1033237444160432E-05
_DMZ= 0.1963710132211758    
_FREQUENCIES= -628.5227981119980    
_EMP2= -40.20139422295244    
_ENERGR= -40.06585443794745    
_ENERGU= -40.22946877945235    
_ENERGY= -40.20139422295244    
_ENUC=  11.23138984240292    
_FREQSTEP=  31.00000000000000    
!RS2GRSTATE=  1.000000000000000    
!RS2GRSYM=  1.000000000000000    
_GRADENERG= -40.20128551338088    
_GRADEXFAC=  9999.000000000000    
_GRADMETHOD=TRUE
_GRADRECORD=  5200.100000000000    
_VIRIAL= 0.5675391228259032E-01
!GRID_FREEZE= -1.000000000000000    
_ITERATIONS=  0.000000000000000    
_LASTNELEC=  2.000000000000000    
_LASTSPIN=  0.000000000000000    
_LASTSYM=  1.000000000000000    
_MPP_PROG=  1.000000000000000    
_MSENERGY= -40.20139422295244    
_NPROC_MPP=  4.000000000000000    
_NPROC_SMP=  1.000000000000000    
_NUMSTEP=  0.000000000000000    
_OPTCONVMX= 0.1863112317371257E-03
_OPTCONVRMS= 0.2826991402643688E-04
_OPTGRAD= 0.2309867821089692E-03
_OPTGRADMX= 0.2012460089573930E-03
_OPTGRADRMS= 0.2887334776362115E-04
_OPTSTEP=  4.000000000000000    
_ORBITAL=  2142.200000000000    
_PI=  3.141592653589793    
!MCACT=  2.000000000000000    
!MCCLOSED=  4.000000000000000    
!MCFREEZE=  0.000000000000000    
!MCMS2=  0.000000000000000    
!MCNEL=  2.000000000000000    
!MCNSTSYM=  1.000000000000000    
!MCSTATE=  1.000000000000000    
!MCSYM=  1.000000000000000    
!MCWEIGHT=  1.000000000000000    
_SEIG_MIN= 0.1520598325044363E-01
_SEWPROP=TRUE
_STATUS=  1.000000000000000    
_SYSTOT=  5.540000000000000    
_VERSION=  2010001.000000000    
_WALLTOT=  560.9600000000000    
_ZPE= 0.3178697902707812E-01
_DATE=30-Aug-19
_LASTORB=MCSCF
_MACHINE=Linux-2.6.34-12-desktop/tt108(x86_64) 64 bit mpp version
_OUTPUT=/home/carlo/qm/combustion/test_diss/newalg/ch4_ch3_h_vrc_test1/dist_2.8/molpro.xml
_PGROUP=C1
_TIME=04:00:39
_LIBMOL=/programs/molpro2010p/bin/../lib/
!SURFREC=  0.000000000000000    
!POLYREC=  0.000000000000000    
!DIPREC=  0.000000000000000    
!VSCFREC=  0.000000000000000    
!VCIREC=  0.000000000000000    
!PVCIREC=  0.000000000000000    
!VMP2REC=  0.000000000000000    
!VMCSCFREC=  0.000000000000000    
!GAREC=  0.000000000000000    
!SCFORB=  21002.00000000000    
!MCORB=  21422.00000000000    
!CIOCC=  6.000000000000000    
!CICORE=  1.000000000000000    
!CICLOS=  4.000000000000000    
!CIISTSYM=  1.000000000000000    
!CIISTMS2=  0.000000000000000    
!CIISTNEL=  8.000000000000000    
!NEWMOL=  0.000000000000000    
!NEWSYM=  0.000000000000000    
_SLFILES=slscratch
_NGSSTO=  9.000000000000000    
_SIN=SIN
_COS=COS
_TAN=TAN
_ACOS=ACOS
_ASIN=ASIN
_ATAN=ATAN
_COSH=COSH
_SINH=SINH
_TANH=TANH
_ABS=ABS
_MOD=MOD
_ERF=ERF
_REFC=REFC
_ERFC=ERFC
_HYPOT=HYPOT
_J0=J0
_J1=J1
_JN=JN
_GAMMA=GAMMA
_LGAMMA=LGAMMA
_Y0=Y0
_Y1=Y1
_YN=YN
_EXP=EXP
_LOG=LOG
_LOG10=LOG10
_SQRT=SQRT
_INT=INT
_NINT=NINT
_MAX=MAX
_MIN=MIN
_COSMO=  0.000000000000000    
_COSMOIT=  0.000000000000000    
_COSMOES=  0.000000000000000    
_COSMOEDS=  0.000000000000000    
_COSMOEC=  0.000000000000000    
_COSMOEDCORR=  0.000000000000000    
_FEPSI=  1.000000000000000    
_SL_IsMM=  0.000000000000000    
_SL_NSYM=  0.000000000000000    
_SL_System_BitSw=  0.000000000000000    
_SL_Unique_atoms=  0.000000000000000    
_SL_GRAD=  0.000000000000000    
_SL_MAXUPD_Hess=  5.000000000000000    
_SL_N_PRINT_COD=  5.000000000000000    
_SL_PRINT_CODES=  0.000000000000000    
_SL_BasType=  0.000000000000000    
_SL_Energy_Pred=  0.000000000000000    
_SL_New_Coords=  0.000000000000000    
_SL_Total_Nuclea=  0.000000000000000    
_SL_Highest_Mltp=  0.000000000000000    
_SL_Ref_Geom=  0.000000000000000    
!LATTICE= -1.000000000000000    
!NEWLATTICE=  0.000000000000000    
!LATGRAD_VAR=FALSE
!SEW_LATTICE=  1.000000000000000    
!LOCAL=  0.000000000000000    
!SAVEDOM= -1.000000000000000    
!RESTDOM= -1.000000000000000    
!SAVEDOM_HF= -1.000000000000000    
!RESTDOM_HF= -1.000000000000000    
!HESSREC=  5300.200000000000    
!FREQREC=  5400.200000000000    
!NMODREC=  5450.200000000000    
!GTASKS=  0.000000000000000    
!HTASKS=  5500.200000000000    
!THRCHG= 0.1000000000000000    
!DEBUG= -1.000000000000000    
!CFIT_CPHF=  0.000000000000000    
!RDOMAUX_CPHF=  3.000000000000000    
!THRAO_CPHF= 0.1000000000000000E-09
!THRMO_CPHF= 0.1000000000000000E-09
!THROV_CPHF= 0.1000000000000000E-11
!THRSW_CPHF= 0.1000000000000000E-09
!THRPROD_CPHF= 0.1000000000000000E-09
!THRAOPR_CPHF= 0.1000000000000000E-11
!CFIT_SCFGRD=  0.000000000000000    
!RDOMAUX_SCFGRD=  5.000000000000000    
!THRAO_SCFGRD= 0.1000000000000000E-09
!THRMO_SCFGRD= 0.1000000000000000E-09
!THROV_SCFGRD= 0.1000000000000000E-11
!THRSW_SCFGRD= 0.1000000000000000E-09
!THRPROD_SCFGRD= 0.1000000000000000E-09
!THRAOPR_SCFGRD= 0.1000000000000000E-11
!LOCFIT_SCF=  0.000000000000000    
!LOCFIT_MP2= -1.000000000000000    
_RIDOM=  0.000000000000000    
!CC2_METHOD=  0.000000000000000    
_BASIS2006=FALSE
_SVDDEL= -1.000000000000000    
_SVDDELA= -1.000000000000000    
_SVDDELP= -1.000000000000000    
_SVDDELF= -1.000000000000000    
_SVDDELS= -1.000000000000000    
_SVDDEL_ABS= -1.000000000000000    
_SVDDELA_ABS= -1.000000000000000    
_SVDDELP_ABS= -1.000000000000000    
_SVDDELF_ABS= -1.000000000000000    
_SVDDELS_ABS= -1.000000000000000    
_MAXBASIS=  0.000000000000000    
!OPT_CONICAL=  0.000000000000000    
!CLEARSP_JGRID=  0.000000000000000    
RCH1=  1.090344710932337    
RCH2=  1.090344819347604    
RCH3=  1.090345591507264    
AHCC1=  119.7717601983598    
AHCC2=  119.7662936186956    
AHCC3=  92.76939152694952    
B1=  170.4220844155911    
B2= -94.78915549638739    
RCH4=  2.800000000000000    
GX1=-0.3618737720019125E-05
GY1= 0.1015642136340499E-04
GZ1= 0.3136547896366996    
GX2= -1.785648109418761    
GY2=  1.023258014226744    
GZ2= 0.4131721078971737    
GX3=  1.779031818632890    
GY3=  1.034686193646132    
GZ3= 0.4133813010582297    
GX4= 0.6589308651351766E-02
GY4= -2.058018411645613    
GZ4= 0.4133940795005106    
GX5= 0.7010440246696392E-04
GY5=-0.4682404339807766E-04
GZ5= -4.977578377523117    
C1X1=-0.3618737720019125E-05
C1Y1= 0.1015642136340499E-04
C1Z1= 0.3136547896366996    
H2X2= -1.785648109418761    
H2Y2=  1.023258014226744    
H2Z2= 0.4131721078971737    
H3X3=  1.779031818632890    
H3Y3=  1.034686193646132    
H3Z3= 0.4133813010582297    
H4X4= 0.6589308651351768E-02
H4Y4= -2.058018411645613    
H4Z4= 0.4133940795005106    
H5X5= 0.7010440246696392E-04
H5Y5=-0.4682404339807766E-04
H5Z5= -4.977578377523117    
CBSEN= -40.20139422295244    
[Atoms] Angs
C     1    6        -0.0000019150        0.0000053745        0.1659789662
H     2    1        -0.9449242828        0.5414848201        0.2186412629
H     3    1         0.9414230925        0.5475323521        0.2187519631
H     4    1         0.0034869120       -1.0890564391        0.2187587252
H     5    1         0.0000370977       -0.0000247782       -2.6340210334
[GTO]
  1 0
 s    9  1.00
  0.6665000000D+04  0.6920001793D-03
  0.1000000000D+04  0.5329001381D-02
  0.2280000000D+03  0.2707700701D-01
  0.6471000000D+02  0.1017180264D+00
  0.2106000000D+02  0.2747400712D+00
  0.7495000000D+01  0.4485641162D+00
  0.2797000000D+01  0.2850740738D+00
  0.5215000000D+00  0.1520400394D-01
  0.1596000000D+00 -0.3191000827D-02
 s    9  1.00
  0.6665000000D+04 -0.1460000642D-03
  0.1000000000D+04 -0.1154000508D-02
  0.2280000000D+03 -0.5725002519D-02
  0.6471000000D+02 -0.2331201026D-01
  0.2106000000D+02 -0.6395502813D-01
  0.7495000000D+01 -0.1499810660D+00
  0.2797000000D+01 -0.1272620560D+00
  0.5215000000D+00  0.5445292395D+00
  0.1596000000D+00  0.5804962554D+00
 s    9  1.00
  0.6665000000D+04  0.0000000000D+00
  0.1000000000D+04  0.0000000000D+00
  0.2280000000D+03  0.0000000000D+00
  0.6471000000D+02  0.0000000000D+00
  0.2106000000D+02  0.0000000000D+00
  0.7495000000D+01  0.0000000000D+00
  0.2797000000D+01  0.0000000000D+00
  0.5215000000D+00  0.0000000000D+00
  0.1596000000D+00  0.1000000000D+01
 p    4  1.00
  0.9439000000D+01  0.3810902127D-01
  0.2002000000D+01  0.2094801169D+00
  0.5456000000D+00  0.5085572839D+00
  0.1517000000D+00  0.4688422617D+00
 p    4  1.00
  0.9439000000D+01  0.0000000000D+00
  0.2002000000D+01  0.0000000000D+00
  0.5456000000D+00  0.0000000000D+00
  0.1517000000D+00  0.1000000000D+01
 d    1  1.00
  0.5500000000D+00  0.1000000000D+01
  
  2 0
 s    4  1.00
  0.1301000000D+02  0.1968498999D-01
  0.1962000000D+01  0.1379769298D+00
  0.4446000000D+00  0.4781477569D+00
  0.1220000000D+00  0.5012397451D+00
 s    4  1.00
  0.1301000000D+02  0.0000000000D+00
  0.1962000000D+01  0.0000000000D+00
  0.4446000000D+00  0.0000000000D+00
  0.1220000000D+00  0.1000000000D+01
 p    1  1.00
  0.7270000000D+00  0.1000000000D+01
  
  3 0
 s    4  1.00
  0.1301000000D+02  0.1968498999D-01
  0.1962000000D+01  0.1379769298D+00
  0.4446000000D+00  0.4781477569D+00
  0.1220000000D+00  0.5012397451D+00
 s    4  1.00
  0.1301000000D+02  0.0000000000D+00
  0.1962000000D+01  0.0000000000D+00
  0.4446000000D+00  0.0000000000D+00
  0.1220000000D+00  0.1000000000D+01
 p    1  1.00
  0.7270000000D+00  0.1000000000D+01
  
  4 0
 s    4  1.00
  0.1301000000D+02  0.1968498999D-01
  0.1962000000D+01  0.1379769298D+00
  0.4446000000D+00  0.4781477569D+00
  0.1220000000D+00  0.5012397451D+00
 s    4  1.00
  0.1301000000D+02  0.0000000000D+00
  0.1962000000D+01  0.0000000000D+00
  0.4446000000D+00  0.0000000000D+00
  0.1220000000D+00  0.1000000000D+01
 p    1  1.00
  0.7270000000D+00  0.1000000000D+01
  
  5 0
 s    4  1.00
  0.1301000000D+02  0.1968498999D-01
  0.1962000000D+01  0.1379769298D+00
  0.4446000000D+00  0.4781477569D+00
  0.1220000000D+00  0.5012397451D+00
 s    4  1.00
  0.1301000000D+02  0.0000000000D+00
  0.1962000000D+01  0.0000000000D+00
  0.4446000000D+00  0.0000000000D+00
  0.1220000000D+00  0.1000000000D+01
 p    1  1.00
  0.7270000000D+00  0.1000000000D+01
 
 
[MO]
 Sym=      1.1
 Ene=     -11.2448
 Spin= Alpha
 Occup=    2.000000
1 1.00130532801023
2 0.007549760058355
3 -0.007642363806731
4 -0.000000005851812
5 -0.000000006467257
6 0.000159103673718
7 0.000000002171873
8 0.000000070441848
9 -0.000022933346536
10 0.000358714278873
11 0.000358526242069
12 -0.000717240520942
13 0.000000001354004
14 0.000000071560421
15 -0.000000047006137
16 -0.000598737250631
17 0.001498507621139
18 -0.000439062915799
19 0.000251643616157
20 0.000041525420233
21 -0.000598747228332
22 0.001498517020325
23 0.000437436320479
24 0.000254454841686
25 0.000041576315165
26 -0.000598572909932
27 0.001498456432902
28 0.000001619343139
29 -0.000506015106167
30 0.000041572521997
31 -0.000181605342021
32 0.000322563385161
33 0.000000000380387
34 -0.000000000138763
35 0.000090128030433
 Sym=      2.1
 Ene=      -0.9011
 Spin= Alpha
 Occup=    2.000000
1 -0.025836737150296
2 0.76192652556832
3 -0.14354021578245
4 -0.000001325434113
5 -0.000005262586140
6 0.025380396563596
7 0.000000202585532
8 0.000003657881524
9 -0.004880392782023
10 0.002004519355146
11 0.002004552594947
12 -0.004009071950093
13 -0.000000012991512
14 0.000000395597427
15 -0.000000273056315
16 0.34620620231504
17 -0.14397675359332
18 0.024266953242657
19 -0.013906338644490
20 -0.000616680118520
21 0.34620645251182
22 -0.14397679246268
23 -0.024177226874095
24 -0.014061666957615
25 -0.000619543515210
26 0.34620963179218
27 -0.14397637365581
28 -0.000089628943690
29 0.027968813456394
30 -0.000619708384435
31 0.007123882180593
32 0.000238241850446
33 -0.000000003931959
34 0.000000002547546
35 0.000622542014089
 Sym=      3.1
 Ene=      -0.5723
 Spin= Alpha
 Occup=    2.000000
1 -0.000000014686429
2 0.000000187131598
3 0.000000111035273
4 -0.64106021168160
5 -0.000834551970847
6 -0.000037156056297
7 0.11812439774871
8 0.000153810622904
9 0.000006930900081
10 0.000170473377406
11 -0.000170135064082
12 -0.000000338313325
13 -0.023624757506679
14 -0.003631823418032
15 -0.000006102855066
16 0.55082995786991
17 -0.15686917810716
18 0.013985356516694
19 -0.015105384847425
20 -0.001134733732671
21 -0.54962029962513
22 0.15652455661710
23 0.013830294158845
24 0.015208257747922
25 0.001133903696856
26 -0.001209765873287
27 0.000344533854922
28 -0.012346543732880
29 -0.000082733490690
30 0.000001785813247
31 0.000000753471989
32 -0.000000145818160
33 -0.000475740469325
34 -0.000000611006503
35 0.000000021991779
 Sym=      4.1
 Ene=      -0.5723
 Spin= Alpha
 Occup=    2.000000
1 -0.000000170603269
2 0.000009861767265
3 0.000001291922058
4 -0.000834647417351
5 0.64106128996966
6 -0.000023727167104
7 0.000153752206858
8 -0.11811717637207
9 0.000004569683959
10 0.020461522703598
11 -0.020461478666053
12 -0.000000044037545
13 0.000196315660828
14 -0.000003355955799
15 0.003633617617509
16 0.31662229596399
17 -0.090166659885661
18 0.015119248492100
19 0.003673589274727
20 -0.000652293906878
21 0.31871782584592
22 -0.090763334389239
23 -0.015195183972238
24 0.003518685535948
25 -0.000658396518427
26 -0.63534405237719
27 0.18093179641930
28 0.000096069591251
29 -0.022657594462057
30 0.001311298069085
31 0.000000627882762
32 -0.000000012467072
33 -0.000000627783007
34 0.000475762493938
35 0.000000046022967
 Sym=      5.1
 Ene=      -0.2168
 Spin= Alpha
 Occup=    1.388351
1 -0.000202098234519
2 -0.011813422639650
3 -0.011134207754735
4 -0.000035636068308
5 0.000022876021827
6 0.57700351594523
7 -0.000003861615712
8 0.000002254282403
9 0.068876183880388
10 0.002807722630414
11 0.002807426486554
12 -0.005615149116968
13 -0.000000073598886
14 0.000000409689817
15 -0.000000598083483
16 0.028161145251387
17 -0.009229157126924
18 0.000975791696251
19 -0.000559148530283
20 0.013194877758997
21 0.028158235186906
22 -0.009228696289632
23 -0.000973622438857
24 -0.000565321760535
25 0.013194680460433
26 0.028156738124038
27 -0.009228822132573
28 -0.000004393972686
29 0.001125875826755
30 0.013194378558120
31 -0.65160858617778
32 -0.038811577086695
33 0.000000011593125
34 -0.000000000199795
35 0.000223267575629
 Sym=      6.1
 Ene=      -0.0596
 Spin= Alpha
 Occup=    0.611649
1 0.002777776453801
2 -0.054174385564325
3 -0.033596534147613
4 -0.000038418777445
5 0.000024546244108
6 0.68181437449737
7 -0.000004607808792
8 0.000002849336319
9 0.080517669710039
10 0.001948211513453
11 0.001948228577556
12 -0.003896440091009
13 0.000000048066472
14 0.000000341447601
15 -0.000000631114805
16 0.008414874594118
17 -0.000600708085621
18 -0.000246592626381
19 0.000141317523014
20 0.013831054341964
21 0.008418353697635
22 -0.000600992591317
23 0.000243944152584
24 0.000142797705994
25 0.013831002562206
26 0.008417909699538
27 -0.000601165383202
28 0.000000117363036
29 -0.000282616085666
30 0.013830656701009
31 0.78412921323518
32 -0.049697660225391
33 -0.000000040998010
34 0.000000015147371
35 -0.001512778480959
 Sym=      7.1
 Ene=       0.2001
 Spin= Alpha
 Occup=    0.000000
1 -0.081411082769263
2 0.21663227277970
3 2.05827478595145
4 -0.000000855906566
5 0.000000304072841
6 0.045707173565064
7 -0.000000000409474
8 -0.000015257803593
9 0.042605915054525
10 0.012700534482069
11 0.012697603687555
12 -0.025398138169624
13 0.000000064258305
14 0.000002668250751
15 -0.000001877354549
16 -0.063458708568897
17 -1.00496893884473
18 -0.014893678414190
19 0.008536179607402
20 0.002420685683390
21 -0.063456805495297
22 -1.00498017413649
23 0.014838451405639
24 0.008631552218002
25 0.002422473250442
26 -0.063446823803267
27 -1.00497531223424
28 0.000054898251844
29 -0.017165653225343
30 0.002422465203543
31 0.092809787267962
32 -0.021600644481516
33 0.000000444151212
34 -0.000000192932540
35 -0.003182866794013
 Sym=      8.1
 Ene=       0.2676
 Spin= Alpha
 Occup=    0.000000
1 0.000000397138872
2 -0.000000026650918
3 -0.000007648627711
4 0.44864472452063
5 0.007883970538489
6 0.000024727222326
7 1.23126565126156
8 0.021635686689717
9 0.000072724323795
10 0.000161938888911
11 -0.000162431264460
12 0.000000492375549
13 0.023581472841823
14 0.005015135191399
15 0.000089523182063
16 0.024224747277636
17 1.84529799532479
18 0.021146239442494
19 -0.009651000585626
20 -0.000418894578668
21 -0.024629251258471
22 -1.87615677983944
23 0.021366227260781
24 0.010070841405382
25 0.000428220003390
26 0.000406301399770
27 0.030868070038835
28 0.004172468843741
29 0.000400567544037
30 -0.000006899348194
31 -0.000005119273873
32 0.000000597392210
33 -0.003315038049991
34 -0.000057703877665
35 0.000000099179978
 Sym=      9.1
 Ene=       0.2676
 Spin= Alpha
 Occup=    0.000000
1 -0.000000957387278
2 -0.000007733960594
3 0.000017024212438
4 0.007883824339345
5 -0.44865035359556
6 0.000016495367809
7 0.021636514276661
8 -1.23121731320068
9 0.000047866985353
10 -0.020421104088530
11 0.020422862740807
12 -0.000001758652276
13 0.000187800213254
14 0.000086757861556
15 -0.005016459124592
16 0.014475054322167
17 1.10098307268452
18 0.010198121088087
19 -0.009978644504838
20 -0.000249989024222
21 0.013773446342967
22 1.04752130173886
23 -0.009524068541091
24 -0.009758568035423
25 -0.000238975899232
26 -0.028224275361309
27 -2.14854812951223
28 0.000146333518766
29 -0.026950221040013
30 0.000490612276870
31 0.000000075550850
32 -0.000001747079030
33 -0.000058784940287
34 0.003313965090875
35 -0.000000152160902
 Sym=     10.1
 Ene=       0.6121
 Spin= Alpha
 Occup=    0.000000
1 -0.000020743332975
2 -0.000044559996590
3 0.000110615282751
4 -0.000067485446513
5 -0.44558198893739
6 0.000017317313089
7 0.000247994599620
8 1.63798873240400
9 -0.000024656313180
10 -0.10895975314913
11 0.10892543505040
12 0.000034318098730
13 -0.001228483250424
14 -0.000008704313388
15 -0.008988016249162
16 -0.66182705388790
17 0.23644335084008
18 0.032559581490511
19 0.052675303427352
20 -0.001639441463348
21 -0.66956788918597
22 0.23920858174744
23 -0.032796729330147
24 0.052246458264428
25 -0.001662421057684
26 1.33091004738905
27 -0.47529808139307
28 0.000252408642351
29 -0.004097772362870
30 0.003295735054757
31 -0.000267956603503
32 0.000284691223503
33 0.000003386565305
34 0.020880703598657
35 0.000006182500973
 Sym=     11.1
 Ene=       0.6121
 Spin= Alpha
 Occup=    0.000000
1 -0.000000187926829
2 -0.000000687416459
3 0.000001764868793
4 -0.44559044590787
5 0.000067541082789
6 -0.000018211807449
7 1.63815078037011
8 -0.000248380735605
9 0.000085508874463
10 0.001065445975113
11 -0.001064309961492
12 -0.000001136013621
13 -0.12580091814754
14 -0.008979616284176
15 -0.000005979153714
16 1.15498357979303
17 -0.41237129086678
18 0.014539468239555
19 0.032543896929802
20 0.002861234282201
21 -1.15051377395429
22 0.41077461878596
23 0.014968796481677
24 -0.032801693755314
25 -0.002847524794885
26 -0.004468907620777
27 0.001594773263050
28 0.071337170211277
29 0.000242501976937
30 -0.000006453196914
31 0.000021919550714
32 -0.000016040306805
33 0.020881277305119
34 -0.000002940783784
35 -0.000003101072829
 Sym=     12.1
 Ene=       0.6451
 Spin= Alpha
 Occup=    0.000000
1 -0.063841471861910
2 -0.10021927041388
3 0.45391914150563
4 -0.000020661456108
5 0.000100806871433
6 0.20995154683384
7 0.000025110863440
8 -0.000362288221715
9 -0.023891306513027
10 -0.072875959262026
11 -0.072905539815807
12 0.14578149907783
13 0.000000606944502
14 -0.000012795519209
15 0.000010364774310
16 -0.56806245032819
17 0.32148659003109
18 0.050765829876970
19 -0.029106353507351
20 0.002954517624477
21 -0.56808302828706
22 0.32150003479146
23 -0.050577000488794
24 -0.029430450018420
25 0.002952261746554
26 -0.56845284463556
27 0.32157099305538
28 -0.000187726130187
29 0.058513561774347
30 0.002950833130639
31 -1.75956884004359
32 1.93214246415354
33 0.000000195610648
34 -0.000004328807084
35 0.015602154678596
 Sym=     13.1
 Ene=       0.7209
 Spin= Alpha
 Occup=    0.000000
1 -0.053812818110239
2 -0.009128559771939
3 0.31331980079919
4 0.000069174935086
5 -0.000005559543356
6 -1.16492844186727
7 -0.000082135430476
8 -0.000097665522199
9 1.39199837559910
10 -0.072230247729617
11 -0.072228747227888
12 0.14445899495750
13 -0.000000881674543
14 -0.000015297407149
15 0.000010570612240
16 -0.66242722298079
17 0.48284425067613
18 0.050636926069451
19 -0.029023643492492
20 -0.038706608182767
21 -0.66243195179441
22 0.48284818781451
23 -0.050445671624590
24 -0.029348401708784
25 -0.038713488348107
26 -0.66254052462540
27 0.48280969291818
28 -0.000184446293279
29 0.058355296381096
30 -0.038714571837688
31 0.54295570229977
32 -0.50239924727596
33 -0.000000320181025
34 -0.000001604684612
35 -0.038111049998517
 Sym=     14.1
 Ene=       0.7931
 Spin= Alpha
 Occup=    0.000000
1 0.034732732519508
2 -0.084862257069458
3 0.037363251446807
4 0.000037934115809
5 -0.000072326035366
6 -0.89884619870744
7 -0.000039037603996
8 0.000171391759300
9 1.19538035786977
10 0.088510217338375
11 0.088490567371476
12 -0.17700078470985
13 0.000001283016105
14 0.000021393358886
15 -0.000014611103979
16 0.74482041914688
17 -0.69964701507116
18 -0.078146529901597
19 0.044786584839491
20 -0.031191442651260
21 0.74480771469119
22 -0.69964935804447
23 0.077865386241683
24 0.045288723675858
25 -0.031177133465039
26 0.74486137766438
27 -0.69955275736986
28 0.000290883995627
29 -0.090065188938445
30 -0.031176645196128
31 -1.09856986913323
32 1.43892527090479
33 0.000001723644863
34 0.000000130359177
35 -0.11988005038989
 Sym=     15.1
 Ene=       0.8923
 Spin= Alpha
 Occup=    0.000000
1 -0.000003441994147
2 -0.000008928493304
3 0.000007749059589
4 -0.008689743350855
5 -1.25716450792112
6 0.000053913565086
7 0.015987458094232
8 2.31293279416681
9 -0.000096326048742
10 0.28917492473692
11 -0.28918382281717
12 0.000008898080250
13 0.005518427702756
14 0.000218510328144
15 0.028820509423615
16 0.29661531710759
17 -0.98462704492820
18 -0.15099409134237
19 0.018508796921188
20 0.007981640302760
21 0.30719920038438
22 -1.01975664044861
23 0.15485104675394
24 0.022583994304319
25 0.008284517716675
26 -0.60390994121178
27 2.00447240706510
28 -0.001599910549340
29 0.28543346634800
30 -0.016277038814484
31 0.000016049550417
32 -0.000022561167996
33 0.000041413267612
34 0.005724766218635
35 0.000004654803393
 Sym=     16.1
 Ene=       0.8923
 Spin= Alpha
 Occup=    0.000000
1 0.000000681663376
2 0.000004951174622
3 -0.000007879615550
4 -1.25716259200904
5 0.008689834766356
6 -0.000068388983900
7 2.31296231223900
8 -0.015987739904705
9 0.000127530723709
10 -0.004784107264267
11 0.004779896066137
12 0.000004211198129
13 0.33390182444671
14 0.028796240361283
15 -0.000179749014218
16 -0.52605372638530
17 1.74606529121023
18 0.19918275451505
19 -0.15249503590767
20 -0.014151459857436
21 0.51993318635396
22 -1.72577036697973
23 0.19510429137662
24 0.15334251557127
25 0.014010194667216
26 0.006105195135803
27 -0.020275662326265
28 -0.067746782860512
29 -0.003104573258082
30 0.000160837795687
31 0.000017815981973
32 -0.000020974272180
33 0.005721435561147
34 -0.000037705720728
35 -0.000001206425439
 Sym=     17.1
 Ene=       1.0622
 Spin= Alpha
 Occup=    0.000000
1 0.79589430314113
2 3.60951361390494
3 -6.04476926976630
4 0.000002152181233
5 -0.000012935750636
6 -0.000534651440679
7 -0.000001148934970
8 0.000063141761838
9 -0.051175147303152
10 -0.017759559250410
11 -0.017729567359085
12 0.035489126609495
13 -0.000000487133077
14 -0.000002201762597
15 -0.000000488093705
16 0.16701947500230
17 0.83965650118871
18 0.15702733735252
19 -0.089985524092091
20 -0.019401953535305
21 0.16701651262632
22 0.83966539889124
23 -0.15644534441697
24 -0.090990875032040
25 -0.019418104339554
26 0.16703152999147
27 0.83968243147236
28 -0.000579044529160
29 0.18097633137535
30 -0.019416330444693
31 -0.13716539646882
32 0.21059181501694
33 -0.000001715691229
34 0.000001294307308
35 -0.13427023663018
 Sym=     18.1
 Ene=       1.2103
 Spin= Alpha
 Occup=    0.000000
1 -0.000001460087827
2 -0.000005658578924
3 0.000009220840403
4 -0.010882294907991
5 -0.000032488663446
6 0.000002262380696
7 -0.029700132810944
8 -0.000088112110003
9 -0.000007242919221
10 0.000250850101290
11 -0.000314620346674
12 0.000063770245384
13 -0.054656447489887
14 0.62421179871980
15 0.001854491925885
16 -0.028679011481982
17 0.007201723983952
18 0.001950080318826
19 0.025855833409902
20 -0.35656406513970
21 0.028664652979355
22 -0.007195281618718
23 0.002086120565625
24 -0.025857498090681
25 0.35646989282768
26 0.000004135514207
27 0.000000787329373
28 0.046823081513512
29 0.000153032837940
30 0.000097487705307
31 0.000021539233995
32 -0.000027867059536
33 -0.012118795247952
34 -0.000035912835391
35 0.000007751007533
 Sym=     19.1
 Ene=       1.2104
 Spin= Alpha
 Occup=    0.000000
1 0.000003313536759
2 0.000013963502080
3 -0.000022478437151
4 0.000032278044421
5 -0.010880313080534
6 0.000003244529384
7 0.000088658870695
8 -0.029696919652415
9 0.000004686740197
10 -0.047348931853625
11 0.047393656041592
12 -0.000044724187968
13 -0.000399890101619
14 -0.001860931084400
15 0.62421731942373
16 0.016548442479399
17 -0.004153575754644
18 0.025751988298859
19 0.031983470545059
20 0.20574748872971
21 0.016561751421026
22 -0.004157387350100
23 -0.025979701384189
24 0.031805762590555
25 0.20590852147246
26 -0.033098843014461
27 0.008310211168155
28 0.000076369351581
29 -0.012933163170663
30 -0.41167296220522
31 -0.000014577542849
32 0.000019345356238
33 0.000036220330166
34 -0.012118843879085
35 -0.000006788882410
 Sym=     20.1
 Ene=       1.5201
 Spin= Alpha
 Occup=    0.000000
1 0.000002042996249
2 0.000008951980321
3 -0.000017381818678
4 0.037428730171062
5 0.006207996613845
6 0.000004353172711
7 0.077333216318790
8 0.012798156008962
9 0.000000977336511
10 0.009824891867632
11 -0.009827328183862
12 0.000002436316229
13 0.072826979818521
14 0.010010023172915
15 0.001663253790965
16 0.098513597091163
17 -0.011850496655368
18 -0.041286487521664
19 -0.027432665147499
20 -0.013733112053052
21 -0.11890315972854
22 0.014328612453442
23 -0.035649604127076
24 0.008040324049916
25 0.016569569624690
26 0.020384633922725
27 -0.002461412693107
28 -0.069136029711288
29 -0.004812028297034
30 -0.002845948346552
31 0.000002757957451
32 -0.000003453981665
33 0.97713603279370
34 0.16191582556432
35 -0.000002134570200
 Sym=     21.1
 Ene=       1.5201
 Spin= Alpha
 Occup=    0.000000
1 -0.000001282709088
2 -0.000005861570773
3 0.000008906799890
4 -0.006197380763093
5 0.037435819357502
6 -0.000003983080745
7 -0.012822480124781
8 0.077283406200558
9 -0.000001021776074
10 0.063058964258137
11 -0.063058828654633
12 -0.000000135603504
13 -0.011350126066235
14 -0.001654573457408
15 0.010012551391554
16 -0.080398106654556
17 0.009675739626535
18 -0.011275241708898
19 -0.056091903475307
20 0.011209646433463
21 -0.045094390533328
22 0.005442214293938
23 0.024156018559120
24 -0.061735563488090
25 0.006290630189760
26 0.12549755175037
27 -0.015128043307746
28 0.011321178053794
29 -0.028225169258817
30 -0.017491849676313
31 -0.000001995671971
32 0.000002501586251
33 -0.16191592724311
34 0.97713902502547
35 -0.000000148789683
 Sym=     22.1
 Ene=       1.5695
 Spin= Alpha
 Occup=    0.000000
1 0.12554945544797
2 0.55519285635488
3 -0.84179260770957
4 0.000009925390395
5 -0.000006607041395
6 -0.34388657620251
7 -0.000043832023773
8 0.000030839418280
9 0.32935555387838
10 0.064739616395303
11 0.064718721759643
12 -0.12945833815495
13 -0.000020714243421
14 0.000009667616210
15 -0.000006016258086
16 0.047622631268504
17 0.051579021740687
18 0.019419918680680
19 -0.011126604500070
20 0.13031939674227
21 0.047696694814806
22 0.051558736286601
23 -0.019338179176650
24 -0.011261632021108
25 0.13030311851745
26 0.047701020004870
27 0.051557844880400
28 -0.000057478103926
29 0.022378220463718
30 0.13029569270522
31 -0.14521029756987
32 0.22100169876393
33 0.000008231549054
34 -0.000003020132356
35 0.95499458730718
 Sym=     23.1
 Ene=       1.6115
 Spin= Alpha
 Occup=    0.000000
1 -0.000000003567501
2 -0.000000015683335
3 0.000000023559044