
    -----------------------------------------------------------------------
          Psi4: An Open-Source Ab Initio Electronic Structure Package
                               Psi4 1.3.2 release

                         Git: Rev {HEAD} ecbda83 


    R. M. Parrish, L. A. Burns, D. G. A. Smith, A. C. Simmonett,
    A. E. DePrince III, E. G. Hohenstein, U. Bozkaya, A. Yu. Sokolov,
    R. Di Remigio, R. M. Richard, J. F. Gonthier, A. M. James,
    H. R. McAlexander, A. Kumar, M. Saitow, X. Wang, B. P. Pritchard,
    P. Verma, H. F. Schaefer III, K. Patkowski, R. A. King, E. F. Valeev,
    F. A. Evangelista, J. M. Turney, T. D. Crawford, and C. D. Sherrill,
    J. Chem. Theory Comput. 13(7) pp 3185--3197 (2017).
    (doi: 10.1021/acs.jctc.7b00174)


                         Additional Contributions by
    P. Kraus, H. Kruse, M. H. Lechner, M. C. Schieber, R. A. Shaw,
    A. Alenaizan, R. Galvelis, Z. L. Glick, S. Lehtola, and J. P. Misiewicz

    -----------------------------------------------------------------------


    Psi4 started on: Friday, 23 August 2019 03:30PM

    Process ID: 18189
    Host:       blueslogin2
    PSIDATADIR: /home/elliott/miniconda2/envs/pacc-env-mini/share/psi4
    Memory:     500.0 MiB
    Threads:    1
    
  ==> Input File <==

--------------------------------------------------------------------------
#! 
memory 1 GB

molecule {

0 1
C    0.000000  -0.000000   0.000000
H    0.000000   1.093298   0.000000
H   -0.515388  -0.364429   0.892673
H   -0.515388  -0.364429  -0.892673
H    1.030770  -0.364434   0.000000
}
set basis 6-31g*
set scf_type pk
set reference rks
set mp2_type conv
_, wfn = frequency('B3LYP', return_wfn=True)
hess = wfn.hessian()
hess.name = 'Hessian'
hess.print_out()
--------------------------------------------------------------------------

  Memory set to 953.674 MiB by Python driver.
gradient() will perform analytic gradient computation.

*** tstart() called on blueslogin2
*** at Fri Aug 23 15:30:41 2019

   => Loading Basis Set <=

    Name: 6-31G*
    Role: ORBITAL
    Keyword: BASIS
    atoms 1   entry C          line   111 file /home/elliott/miniconda2/envs/pacc-env-mini/share/psi4/basis/6-31gs.gbs 
    atoms 2-5 entry H          line    44 file /home/elliott/miniconda2/envs/pacc-env-mini/share/psi4/basis/6-31gs.gbs 


         ---------------------------------------------------------
                                   SCF
               by Justin Turney, Rob Parrish, Andy Simmonett
                          and Daniel G. A. Smith
                              RKS Reference
                        1 Threads,    953 MiB Core
         ---------------------------------------------------------

  ==> Geometry <==

    Molecular point group: cs
    Full point group: Cs

    Geometry (in Angstrom), charge = 0, multiplicity = 1:

       Center              X                  Y                   Z               Mass       
    ------------   -----------------  -----------------  -----------------  -----------------
         C            0.000000377196    -0.000000377196     0.000000000000    12.000000000000
         H            0.000000377196     1.093297622804     0.000000000000     1.007825032230
         H           -0.515387622804    -0.364429377196     0.892673000000     1.007825032230
         H           -0.515387622804    -0.364429377196    -0.892673000000     1.007825032230
         H            1.030770377196    -0.364434377196     0.000000000000     1.007825032230

  Running in cs symmetry.

  Rotational constants: A =      5.24767  B =      5.24766  C =      5.24766 [cm^-1]
  Rotational constants: A = 157321.28763  B = 157320.92603  C = 157320.84496 [MHz]
  Nuclear repulsion =   13.394868806718527

  Charge       = 0
  Multiplicity = 1
  Electrons    = 10
  Nalpha       = 5
  Nbeta        = 5

  ==> Algorithm <==

  SCF Algorithm Type is PK.
  DIIS enabled.
  MOM disabled.
  Fractional occupation disabled.
  Guess Type is SAD.
  Energy threshold   = 1.00e-08
  Density threshold  = 1.00e-08
  Integral threshold = 0.00e+00

  ==> Primary Basis <==

  Basis Set: 6-31G*
    Blend: 6-31G*
    Number of shells: 14
    Number of basis function: 23
    Number of Cartesian functions: 23
    Spherical Harmonics?: false
    Max angular momentum: 2

  ==> DFT Potential <==

   => Composite Functional: B3LYP <= 

    B3LYP Hyb-GGA Exchange-Correlation Functional

    P. J. Stephens, F. J. Devlin, C. F. Chabalowski, and M. J. Frisch, J. Phys. Chem. 98, 11623 (1994)

    Deriv               =              1
    GGA                 =           TRUE
    Meta                =          FALSE

    Exchange Hybrid     =           TRUE
    MP2 Hybrid          =          FALSE

   => Exchange Functionals <=

    0.0800   Slater exchange
    0.7200         Becke 88

   => Exact (HF) Exchange <=

    0.2000               HF 

   => Correlation Functionals <=

    0.1900   Vosko, Wilk & Nusair (VWN5_RPA)
    0.8100   Lee, Yang & Parr

   => Molecular Quadrature <=

    Radial Scheme          =       TREUTLER
    Pruning Scheme         =           FLAT
    Nuclear Scheme         =       TREUTLER

    BS radius alpha        =              1
    Pruning alpha          =              1
    Radial Points          =             75
    Spherical Points       =            302
    Total Points           =         110164
    Total Blocks           =            910
    Max Points             =            256
    Max Functions          =             23

  ==> Pre-Iterations <==

   -------------------------------------------------------
    Irrep   Nso     Nmo     Nalpha   Nbeta   Ndocc  Nsocc
   -------------------------------------------------------
     A'        17      17       0       0       0       0
     A"         6       6       0       0       0       0
   -------------------------------------------------------
    Total      23      23       5       5       5       0
   -------------------------------------------------------

  ==> Integral Setup <==

  Using in-core PK algorithm.
   Calculation information:
      Number of atoms:                   5
      Number of AO shells:              14
      Number of primitives:             31
      Number of atomic orbitals:        23
      Number of basis functions:        23

      Integral cutoff                 1.00e-12
      Number of threads:                 1

  Performing in-core PK
  Using 76452 doubles for integral storage.
  We computed 5565 shell quartets total.
  Whereas there are 5565 unique shell quartets.

  ==> DiskJK: Disk-Based J/K Matrices <==

    J tasked:                  Yes
    K tasked:                  Yes
    wK tasked:                  No
    Memory [MiB]:              641
    Schwarz Cutoff:          1E-12

    OpenMP threads:              1

  Cached 100.0% of DFT collocation blocks in 0.072 [GiB].

  Minimum eigenvalue in the overlap matrix is 1.7960494217E-02.
  Using Symmetric Orthogonalization.

  SCF Guess: Superposition of Atomic Densities via on-the-fly atomic UHF.

  ==> Iterations <==

                        Total Energy        Delta E     RMS |[F,P]|

   @RKS iter SAD:   -40.09236892842838   -4.00924e+01   0.00000e+00 
   @RKS iter   1:   -40.35179173688952   -2.59423e-01   3.17490e-02 DIIS
   @RKS iter   2:   -40.31070437021709    4.10874e-02   3.36418e-02 DIIS
   @RKS iter   3:   -40.51830543925458   -2.07601e-01   5.95270e-04 DIIS
   @RKS iter   4:   -40.51838293167833   -7.74924e-05   5.63550e-05 DIIS
   @RKS iter   5:   -40.51838345346256   -5.21784e-07   3.33795e-06 DIIS
   @RKS iter   6:   -40.51838345524405   -1.78149e-09   1.75873e-07 DIIS
   @RKS iter   7:   -40.51838345524924   -5.18696e-12   2.15562e-09 DIIS
  Energy and wave function converged.


  ==> Post-Iterations <==

    Orbital Energies [Eh]
    ---------------------

    Doubly Occupied:                                                      

       1Ap   -10.166958     2Ap    -0.690289     3Ap    -0.389061  
       1App   -0.389060     4Ap    -0.389060  

    Virtual:                                                              

       5Ap     0.117910     6Ap     0.176531     2App    0.176531  
       7Ap     0.176531     8Ap     0.533262     3App    0.533264  
       9Ap     0.533264    10Ap     0.897702     4App    0.897703  
      11Ap     0.897704    12Ap     0.947425    13Ap     1.099843  
       5App    1.656523    14Ap     1.656523    15Ap     2.243576  
       6App    2.243577    16Ap     2.243578    17Ap     4.179147  

    Final Occupation by Irrep:
             Ap   App 
    DOCC [     4,    1 ]

  @RKS Final Energy:   -40.51838345524924

   => Energetics <=

    Nuclear Repulsion Energy =             13.3948688067185273
    One-Electron Energy =                 -79.7582487249083130
    Two-Electron Energy =                  31.4318063195330772
    DFT Exchange-Correlation Energy =      -5.5868098565925139
    Empirical Dispersion Energy =           0.0000000000000000
    VV10 Nonlocal Energy =                  0.0000000000000000
    Total Energy =                        -40.5183834552492286

Computation Completed


Properties will be evaluated at   0.000000,   0.000000,   0.000000 [a0]

Properties computed using the SCF density matrix

  Nuclear Dipole Moment: [e a0]
     X:    -0.0000      Y:     0.0000      Z:     0.0000

  Electronic Dipole Moment: [e a0]
     X:     0.0000      Y:    -0.0000      Z:     0.0000

  Dipole Moment: [e a0]
     X:    -0.0000      Y:     0.0000      Z:     0.0000     Total:     0.0000

  Dipole Moment: [D]
     X:    -0.0000      Y:     0.0000      Z:     0.0000     Total:     0.0000


*** tstop() called on blueslogin2 at Fri Aug 23 15:30:44 2019
Module time:
	user time   =       3.00 seconds =       0.05 minutes
	system time =       0.15 seconds =       0.00 minutes
	total time  =          3 seconds =       0.05 minutes
Total time:
	user time   =       3.00 seconds =       0.05 minutes
	system time =       0.15 seconds =       0.00 minutes
	total time  =          3 seconds =       0.05 minutes

*** tstart() called on blueslogin2
*** at Fri Aug 23 15:30:44 2019


         ------------------------------------------------------------
                                   SCF GRAD                          
                          Rob Parrish, Justin Turney,                
                       Andy Simmonett, and Alex Sokolov              
         ------------------------------------------------------------

  ==> Geometry <==

    Molecular point group: cs
    Full point group: Cs

    Geometry (in Angstrom), charge = 0, multiplicity = 1:

       Center              X                  Y                   Z               Mass       
    ------------   -----------------  -----------------  -----------------  -----------------
         C            0.000000377196    -0.000000377196     0.000000000000    12.000000000000
         H            0.000000377196     1.093297622804     0.000000000000     1.007825032230
         H           -0.515387622804    -0.364429377196     0.892673000000     1.007825032230
         H           -0.515387622804    -0.364429377196    -0.892673000000     1.007825032230
         H            1.030770377196    -0.364434377196     0.000000000000     1.007825032230

  Nuclear repulsion =   13.394868806718527

  ==> Basis Set <==

  Basis Set: 6-31G*
    Blend: 6-31G*
    Number of shells: 14
    Number of basis function: 23
    Number of Cartesian functions: 23
    Spherical Harmonics?: false
    Max angular momentum: 2

  ==> DirectJKGrad: Integral-Direct SCF Gradients <==

    Gradient:                    1
    J tasked:                  Yes
    K tasked:                  Yes
    wK tasked:                  No
    Integrals threads:           1
    Schwarz Cutoff:          0E+00

  ==> DFT Potential <==

   => Composite Functional: B3LYP <= 

    B3LYP Hyb-GGA Exchange-Correlation Functional

    P. J. Stephens, F. J. Devlin, C. F. Chabalowski, and M. J. Frisch, J. Phys. Chem. 98, 11623 (1994)

    Deriv               =              1
    GGA                 =           TRUE
    Meta                =          FALSE

    Exchange Hybrid     =           TRUE
    MP2 Hybrid          =          FALSE

   => Exchange Functionals <=

    0.0800   Slater exchange
    0.7200         Becke 88

   => Exact (HF) Exchange <=

    0.2000               HF 

   => Correlation Functionals <=

    0.1900   Vosko, Wilk & Nusair (VWN5_RPA)
    0.8100   Lee, Yang & Parr

   => Molecular Quadrature <=

    Radial Scheme          =       TREUTLER
    Pruning Scheme         =           FLAT
    Nuclear Scheme         =       TREUTLER

    BS radius alpha        =              1
    Pruning alpha          =              1
    Radial Points          =             75
    Spherical Points       =            302
    Total Points           =         110164
    Total Blocks           =            910
    Max Points             =            256
    Max Functions          =             23


  -Total Gradient:
     Atom            X                  Y                   Z
    ------   -----------------  -----------------  -----------------
       1        0.000001511078    -0.000002726752     0.000000000000
       2       -0.000000440350     0.000023010387     0.000000000000
       3       -0.000010672280    -0.000007657521     0.000018626291
       4       -0.000010672280    -0.000007657521    -0.000018626291
       5        0.000021756001    -0.000007211144     0.000000000000


*** tstop() called on blueslogin2 at Fri Aug 23 15:30:45 2019
Module time:
	user time   =       0.57 seconds =       0.01 minutes
	system time =       0.02 seconds =       0.00 minutes
	total time  =          1 seconds =       0.02 minutes
Total time:
	user time   =       3.57 seconds =       0.06 minutes
	system time =       0.17 seconds =       0.00 minutes
	total time  =          4 seconds =       0.07 minutes

  Based on options and gradient (rms=1.18E-05), recommend projecting translations and projecting rotations.
hessian() will perform frequency computation by finite difference of analytic gradients.

         ----------------------------------------------------------
                                   FINDIF
                     R. A. King and Jonathon Misiewicz
         ---------------------------------------------------------

  Using finite-differences of gradients to determine vibrational frequencies and 
  normal modes.  Resulting frequencies are only valid at stationary points.
    Generating geometries for use with 3-point formula.
    Displacement size will be 5.00e-03.
    Number of atoms is 5.
    Number of irreps is 2.
    Number of SALCs is 9.
    Translations projected? 1. Rotations projected? 1.
    Index of SALCs per irrep:
     1 :  0  1  2  3  4  5 
     2 :  6  7  8 
    Number of SALCs per irrep:
     Irrep 1: 6
     Irrep 2: 3
    Number of geometries (including reference) is 16.
    Number of displacements per irrep:
      Irrep 1: 12
      Irrep 2: 3

  //>>>>>>>>>>>>>>>>>>>>>>>>>>>>>>>>>>>//
  //    Loading displacement 1 of 16   //
  //<<<<<<<<<<<<<<<<<<<<<<<<<<<<<<<<<<<//
gradient() will perform analytic gradient computation.

*** tstart() called on blueslogin2
*** at Fri Aug 23 15:30:49 2019

   => Loading Basis Set <=

    Name: 6-31G*
    Role: ORBITAL
    Keyword: BASIS
    atoms 1   entry C          line   111 file /home/elliott/miniconda2/envs/pacc-env-mini/share/psi4/basis/6-31gs.gbs 
    atoms 2-5 entry H          line    44 file /home/elliott/miniconda2/envs/pacc-env-mini/share/psi4/basis/6-31gs.gbs 


         ---------------------------------------------------------
                                   SCF
               by Justin Turney, Rob Parrish, Andy Simmonett
                          and Daniel G. A. Smith
                              RKS Reference
                        1 Threads,    953 MiB Core
         ---------------------------------------------------------

  ==> Geometry <==

    Molecular point group: cs
    Full point group: Cs

    Geometry (in Angstrom), charge = 0, multiplicity = 1:

       Center              X                  Y                   Z               Mass       
    ------------   -----------------  -----------------  -----------------  -----------------
         C            0.000000377196    -0.000000377196     0.000000000000    12.000000000000
         H            0.000000377196     1.093297622804     0.000000000000     1.007825032230
         H           -0.515387622804    -0.364429377196     0.892673000000     1.007825032230
         H           -0.515387622804    -0.364429377196    -0.892673000000     1.007825032230
         H            1.030770377196    -0.364434377196     0.000000000000     1.007825032230

  Running in cs symmetry.

  Rotational constants: A =      5.24767  B =      5.24766  C =      5.24766 [cm^-1]
  Rotational constants: A = 157321.28763  B = 157320.92603  C = 157320.84496 [MHz]
  Nuclear repulsion =   13.394868806718527

  Charge       = 0
  Multiplicity = 1
  Electrons    = 10
  Nalpha       = 5
  Nbeta        = 5

  ==> Algorithm <==

  SCF Algorithm Type is PK.
  DIIS enabled.
  MOM disabled.
  Fractional occupation disabled.
  Guess Type is SAD.
  Energy threshold   = 1.00e-08
  Density threshold  = 1.00e-08
  Integral threshold = 0.00e+00

  ==> Primary Basis <==

  Basis Set: 6-31G*
    Blend: 6-31G*
    Number of shells: 14
    Number of basis function: 23
    Number of Cartesian functions: 23
    Spherical Harmonics?: false
    Max angular momentum: 2

  ==> DFT Potential <==

   => Composite Functional: B3LYP <= 

    B3LYP Hyb-GGA Exchange-Correlation Functional

    P. J. Stephens, F. J. Devlin, C. F. Chabalowski, and M. J. Frisch, J. Phys. Chem. 98, 11623 (1994)

    Deriv               =              1
    GGA                 =           TRUE
    Meta                =          FALSE

    Exchange Hybrid     =           TRUE
    MP2 Hybrid          =          FALSE

   => Exchange Functionals <=

    0.0800   Slater exchange
    0.7200         Becke 88

   => Exact (HF) Exchange <=

    0.2000               HF 

   => Correlation Functionals <=

    0.1900   Vosko, Wilk & Nusair (VWN5_RPA)
    0.8100   Lee, Yang & Parr

   => Molecular Quadrature <=

    Radial Scheme          =       TREUTLER
    Pruning Scheme         =           FLAT
    Nuclear Scheme         =       TREUTLER

    BS radius alpha        =              1
    Pruning alpha          =              1
    Radial Points          =             75
    Spherical Points       =            302
    Total Points           =         110164
    Total Blocks           =            910
    Max Points             =            256
    Max Functions          =             23

  ==> Pre-Iterations <==

   -------------------------------------------------------
    Irrep   Nso     Nmo     Nalpha   Nbeta   Ndocc  Nsocc
   -------------------------------------------------------
     A'        17      17       0       0       0       0
     A"         6       6       0       0       0       0
   -------------------------------------------------------
    Total      23      23       5       5       5       0
   -------------------------------------------------------

  ==> Integral Setup <==

  Using in-core PK algorithm.
   Calculation information:
      Number of atoms:                   5
      Number of AO shells:              14
      Number of primitives:             31
      Number of atomic orbitals:        23
      Number of basis functions:        23

      Integral cutoff                 1.00e-12
      Number of threads:                 1

  Performing in-core PK
  Using 76452 doubles for integral storage.
  We computed 5565 shell quartets total.
  Whereas there are 5565 unique shell quartets.

  ==> DiskJK: Disk-Based J/K Matrices <==

    J tasked:                  Yes
    K tasked:                  Yes
    wK tasked:                  No
    Memory [MiB]:              641
    Schwarz Cutoff:          1E-12

    OpenMP threads:              1

  Cached 100.0% of DFT collocation blocks in 0.072 [GiB].

  Minimum eigenvalue in the overlap matrix is 1.7960494217E-02.
  Using Symmetric Orthogonalization.

  SCF Guess: Superposition of Atomic Densities via on-the-fly atomic UHF.

  ==> Iterations <==

                        Total Energy        Delta E     RMS |[F,P]|

   @RKS iter SAD:   -40.09236892842838   -4.00924e+01   0.00000e+00 
   @RKS iter   1:   -40.35179173688955   -2.59423e-01   3.17490e-02 DIIS
   @RKS iter   2:   -40.31070437021704    4.10874e-02   3.36418e-02 DIIS
   @RKS iter   3:   -40.51830543925459   -2.07601e-01   5.95270e-04 DIIS
   @RKS iter   4:   -40.51838293167832   -7.74924e-05   5.63550e-05 DIIS
   @RKS iter   5:   -40.51838345346254   -5.21784e-07   3.33795e-06 DIIS
   @RKS iter   6:   -40.51838345524406   -1.78152e-09   1.75873e-07 DIIS
   @RKS iter   7:   -40.51838345524931   -5.25091e-12   2.15562e-09 DIIS
  Energy and wave function converged.


  ==> Post-Iterations <==

    Orbital Energies [Eh]
    ---------------------

    Doubly Occupied:                                                      

       1Ap   -10.166958     2Ap    -0.690289     3Ap    -0.389061  
       1App   -0.389060     4Ap    -0.389060  

    Virtual:                                                              

       5Ap     0.117910     6Ap     0.176531     2App    0.176531  
       7Ap     0.176531     8Ap     0.533262     3App    0.533264  
       9Ap     0.533264    10Ap     0.897702     4App    0.897703  
      11Ap     0.897704    12Ap     0.947425    13Ap     1.099843  
       5App    1.656523    14Ap     1.656523    15Ap     2.243576  
       6App    2.243577    16Ap     2.243578    17Ap     4.179147  

    Final Occupation by Irrep:
             Ap   App 
    DOCC [     4,    1 ]

  @RKS Final Energy:   -40.51838345524931

   => Energetics <=

    Nuclear Repulsion Energy =             13.3948688067185273
    One-Electron Energy =                 -79.7582487249084267
    Two-Electron Energy =                  31.4318063195331163
    DFT Exchange-Correlation Energy =      -5.5868098565925255
    Empirical Dispersion Energy =           0.0000000000000000
    VV10 Nonlocal Energy =                  0.0000000000000000
    Total Energy =                        -40.5183834552493138

Computation Completed


Properties will be evaluated at   0.000000,   0.000000,   0.000000 [a0]

Properties computed using the SCF density matrix

  Nuclear Dipole Moment: [e a0]
     X:    -0.0000      Y:     0.0000      Z:     0.0000

  Electronic Dipole Moment: [e a0]
     X:     0.0000      Y:    -0.0000      Z:     0.0000

  Dipole Moment: [e a0]
     X:    -0.0000      Y:     0.0000      Z:     0.0000     Total:     0.0000

  Dipole Moment: [D]
     X:    -0.0000      Y:     0.0000      Z:     0.0000     Total:     0.0000


*** tstop() called on blueslogin2 at Fri Aug 23 15:30:53 2019
Module time:
	user time   =       3.14 seconds =       0.05 minutes
	system time =       0.12 seconds =       0.00 minutes
	total time  =          4 seconds =       0.07 minutes
Total time:
	user time   =       7.68 seconds =       0.13 minutes
	system time =       0.61 seconds =       0.01 minutes
	total time  =         12 seconds =       0.20 minutes

*** tstart() called on blueslogin2
*** at Fri Aug 23 15:30:53 2019


         ------------------------------------------------------------
                                   SCF GRAD                          
                          Rob Parrish, Justin Turney,                
                       Andy Simmonett, and Alex Sokolov              
         ------------------------------------------------------------

  ==> Geometry <==

    Molecular point group: cs
    Full point group: Cs

    Geometry (in Angstrom), charge = 0, multiplicity = 1:

       Center              X                  Y                   Z               Mass       
    ------------   -----------------  -----------------  -----------------  -----------------
         C            0.000000377196    -0.000000377196     0.000000000000    12.000000000000
         H            0.000000377196     1.093297622804     0.000000000000     1.007825032230
         H           -0.515387622804    -0.364429377196     0.892673000000     1.007825032230
         H           -0.515387622804    -0.364429377196    -0.892673000000     1.007825032230
         H            1.030770377196    -0.364434377196     0.000000000000     1.007825032230

  Nuclear repulsion =   13.394868806718527

  ==> Basis Set <==

  Basis Set: 6-31G*
    Blend: 6-31G*
    Number of shells: 14
    Number of basis function: 23
    Number of Cartesian functions: 23
    Spherical Harmonics?: false
    Max angular momentum: 2

  ==> DirectJKGrad: Integral-Direct SCF Gradients <==

    Gradient:                    1
    J tasked:                  Yes
    K tasked:                  Yes
    wK tasked:                  No
    Integrals threads:           1
    Schwarz Cutoff:          0E+00

  ==> DFT Potential <==

   => Composite Functional: B3LYP <= 

    B3LYP Hyb-GGA Exchange-Correlation Functional

    P. J. Stephens, F. J. Devlin, C. F. Chabalowski, and M. J. Frisch, J. Phys. Chem. 98, 11623 (1994)

    Deriv               =              1
    GGA                 =           TRUE
    Meta                =          FALSE

    Exchange Hybrid     =           TRUE
    MP2 Hybrid          =          FALSE

   => Exchange Functionals <=

    0.0800   Slater exchange
    0.7200         Becke 88

   => Exact (HF) Exchange <=

    0.2000               HF 

   => Correlation Functionals <=

    0.1900   Vosko, Wilk & Nusair (VWN5_RPA)
    0.8100   Lee, Yang & Parr

   => Molecular Quadrature <=

    Radial Scheme          =       TREUTLER
    Pruning Scheme         =           FLAT
    Nuclear Scheme         =       TREUTLER

    BS radius alpha        =              1
    Pruning alpha          =              1
    Radial Points          =             75
    Spherical Points       =            302
    Total Points           =         110164
    Total Blocks           =            910
    Max Points             =            256
    Max Functions          =             23


  -Total Gradient:
     Atom            X                  Y                   Z
    ------   -----------------  -----------------  -----------------
       1        0.000001511078    -0.000002726752     0.000000000000
       2       -0.000000440350     0.000023010387     0.000000000000
       3       -0.000010672280    -0.000007657521     0.000018626291
       4       -0.000010672280    -0.000007657521    -0.000018626291
       5        0.000021756001    -0.000007211144     0.000000000000


*** tstop() called on blueslogin2 at Fri Aug 23 15:30:53 2019
Module time:
	user time   =       0.57 seconds =       0.01 minutes
	system time =       0.01 seconds =       0.00 minutes
	total time  =          0 seconds =       0.00 minutes
Total time:
	user time   =       8.25 seconds =       0.14 minutes
	system time =       0.62 seconds =       0.01 minutes
	total time  =         12 seconds =       0.20 minutes

  //>>>>>>>>>>>>>>>>>>>>>>>>>>>>>>>>>>>//
  //    Loading displacement 2 of 16   //
  //<<<<<<<<<<<<<<<<<<<<<<<<<<<<<<<<<<<//
gradient() will perform analytic gradient computation.

*** tstart() called on blueslogin2
*** at Fri Aug 23 15:30:53 2019

   => Loading Basis Set <=

    Name: 6-31G*
    Role: ORBITAL
    Keyword: BASIS
    atoms 1   entry C          line   111 file /home/elliott/miniconda2/envs/pacc-env-mini/share/psi4/basis/6-31gs.gbs 
    atoms 2-5 entry H          line    44 file /home/elliott/miniconda2/envs/pacc-env-mini/share/psi4/basis/6-31gs.gbs 


         ---------------------------------------------------------
                                   SCF
               by Justin Turney, Rob Parrish, Andy Simmonett
                          and Daniel G. A. Smith
                              RKS Reference
                        1 Threads,    953 MiB Core
         ---------------------------------------------------------

  ==> Geometry <==

    Molecular point group: cs
    Full point group: Cs

    Geometry (in Angstrom), charge = 0, multiplicity = 1:

       Center              X                  Y                   Z               Mass       
    ------------   -----------------  -----------------  -----------------  -----------------
         C           -0.000382640383    -0.000000377196     0.000000000000    12.000000000000
         H            0.001140506027     1.093297622804     0.000000000000     1.007825032230
         H           -0.514247490845    -0.364429378303     0.892673000000     1.007825032230
         H           -0.514247490845    -0.364429378303    -0.892673000000     1.007825032230
         H            1.031910509155    -0.364434374984     0.000000000000     1.007825032230

  Running in cs symmetry.

  Rotational constants: A =      5.24767  B =      5.24765  C =      5.24765 [cm^-1]
  Rotational constants: A = 157321.26256  B = 157320.58387  C = 157320.52786 [MHz]
  Nuclear repulsion =   13.394868819313913

  Charge       = 0
  Multiplicity = 1
  Electrons    = 10
  Nalpha       = 5
  Nbeta        = 5

  ==> Algorithm <==

  SCF Algorithm Type is PK.
  DIIS enabled.
  MOM disabled.
  Fractional occupation disabled.
  Guess Type is SAD.
  Energy threshold   = 1.00e-08
  Density threshold  = 1.00e-08
  Integral threshold = 0.00e+00

  ==> Primary Basis <==

  Basis Set: 6-31G*
    Blend: 6-31G*
    Number of shells: 14
    Number of basis function: 23
    Number of Cartesian functions: 23
    Spherical Harmonics?: false
    Max angular momentum: 2

  ==> DFT Potential <==

   => Composite Functional: B3LYP <= 

    B3LYP Hyb-GGA Exchange-Correlation Functional

    P. J. Stephens, F. J. Devlin, C. F. Chabalowski, and M. J. Frisch, J. Phys. Chem. 98, 11623 (1994)

    Deriv               =              1
    GGA                 =           TRUE
    Meta                =          FALSE

    Exchange Hybrid     =           TRUE
    MP2 Hybrid          =          FALSE

   => Exchange Functionals <=

    0.0800   Slater exchange
    0.7200         Becke 88

   => Exact (HF) Exchange <=

    0.2000               HF 

   => Correlation Functionals <=

    0.1900   Vosko, Wilk & Nusair (VWN5_RPA)
    0.8100   Lee, Yang & Parr

   => Molecular Quadrature <=

    Radial Scheme          =       TREUTLER
    Pruning Scheme         =           FLAT
    Nuclear Scheme         =       TREUTLER

    BS radius alpha        =              1
    Pruning alpha          =              1
    Radial Points          =             75
    Spherical Points       =            302
    Total Points           =         110165
    Total Blocks           =            909
    Max Points             =            256
    Max Functions          =             23

  ==> Pre-Iterations <==

   -------------------------------------------------------
    Irrep   Nso     Nmo     Nalpha   Nbeta   Ndocc  Nsocc
   -------------------------------------------------------
     A'        17      17       0       0       0       0
     A"         6       6       0       0       0       0
   -------------------------------------------------------
    Total      23      23       5       5       5       0
   -------------------------------------------------------

  ==> Integral Setup <==

  Using in-core PK algorithm.
   Calculation information:
      Number of atoms:                   5
      Number of AO shells:              14
      Number of primitives:             31
      Number of atomic orbitals:        23
      Number of basis functions:        23

      Integral cutoff                 1.00e-12
      Number of threads:                 1

  Performing in-core PK
  Using 76452 doubles for integral storage.
  We computed 5565 shell quartets total.
  Whereas there are 5565 unique shell quartets.

  ==> DiskJK: Disk-Based J/K Matrices <==

    J tasked:                  Yes
    K tasked:                  Yes
    wK tasked:                  No
    Memory [MiB]:              641
    Schwarz Cutoff:          1E-12

    OpenMP threads:              1

  Cached 100.0% of DFT collocation blocks in 0.072 [GiB].

  Minimum eigenvalue in the overlap matrix is 1.7960498306E-02.
  Using Symmetric Orthogonalization.

  SCF Guess: Superposition of Atomic Densities via on-the-fly atomic UHF.

  ==> Iterations <==

                        Total Energy        Delta E     RMS |[F,P]|

   @RKS iter SAD:   -40.09236662452372   -4.00924e+01   0.00000e+00 
   @RKS iter   1:   -40.35178833565949   -2.59422e-01   3.17490e-02 DIIS
   @RKS iter   2:   -40.31069966440383    4.10887e-02   3.36419e-02 DIIS
   @RKS iter   3:   -40.51830282058345   -2.07603e-01   5.95284e-04 DIIS
   @RKS iter   4:   -40.51838031688173   -7.74963e-05   5.63607e-05 DIIS
   @RKS iter   5:   -40.51838083878098   -5.21899e-07   3.34936e-06 DIIS
   @RKS iter   6:   -40.51838084057383   -1.79284e-09   2.17561e-07 DIIS
   @RKS iter   7:   -40.51838084058173   -7.90124e-12   4.57391e-08 DIIS
   @RKS iter   8:   -40.51838084058215   -4.26326e-13   6.22123e-10 DIIS
  Energy and wave function converged.


  ==> Post-Iterations <==

    Orbital Energies [Eh]
    ---------------------

    Doubly Occupied:                                                      

       1Ap   -10.166959     2Ap    -0.690289     1App   -0.389388  
       3Ap    -0.389179     4Ap    -0.388613  

    Virtual:                                                              

       5Ap     0.117910     6Ap     0.176152     7Ap     0.176632  
       2App    0.176809     3App    0.533102     8Ap     0.533204  
       9Ap     0.533484    10Ap     0.896769    11Ap     0.897950  
       4App    0.898386    12Ap     0.947430    13Ap     1.099845  
       5App    1.656524    14Ap     1.656524    15Ap     2.242655  
      16Ap     2.243823     6App    2.244249    17Ap     4.179147  

    Final Occupation by Irrep:
             Ap   App 
    DOCC [     4,    1 ]

  @RKS Final Energy:   -40.51838084058215

   => Energetics <=

    Nuclear Repulsion Energy =             13.3948688193139134
    One-Electron Energy =                 -79.7582423863419052
    Two-Electron Energy =                  31.4318021175986111
    DFT Exchange-Correlation Energy =      -5.5868093911527783
    Empirical Dispersion Energy =           0.0000000000000000
    VV10 Nonlocal Energy =                  0.0000000000000000
    Total Energy =                        -40.5183808405821608

Computation Completed


Properties will be evaluated at   0.000000,   0.000000,   0.000000 [a0]

Properties computed using the SCF density matrix

  Nuclear Dipole Moment: [e a0]
     X:     0.0043      Y:     0.0000      Z:     0.0000

  Electronic Dipole Moment: [e a0]
     X:    -0.0043      Y:    -0.0000      Z:     0.0000

  Dipole Moment: [e a0]
     X:    -0.0000      Y:     0.0000      Z:     0.0000     Total:     0.0000

  Dipole Moment: [D]
     X:    -0.0000      Y:     0.0000      Z:     0.0000     Total:     0.0000


*** tstop() called on blueslogin2 at Fri Aug 23 15:30:57 2019
Module time:
	user time   =       3.30 seconds =       0.05 minutes
	system time =       0.08 seconds =       0.00 minutes
	total time  =          4 seconds =       0.07 minutes
Total time:
	user time   =      11.56 seconds =       0.19 minutes
	system time =       0.70 seconds =       0.01 minutes
	total time  =         16 seconds =       0.27 minutes

*** tstart() called on blueslogin2
*** at Fri Aug 23 15:30:57 2019


         ------------------------------------------------------------
                                   SCF GRAD                          
                          Rob Parrish, Justin Turney,                
                       Andy Simmonett, and Alex Sokolov              
         ------------------------------------------------------------

  ==> Geometry <==

    Molecular point group: cs
    Full point group: Cs

    Geometry (in Angstrom), charge = 0, multiplicity = 1:

       Center              X                  Y                   Z               Mass       
    ------------   -----------------  -----------------  -----------------  -----------------
         C           -0.000382640383    -0.000000377196     0.000000000000    12.000000000000
         H            0.001140506027     1.093297622804     0.000000000000     1.007825032230
         H           -0.514247490845    -0.364429378303     0.892673000000     1.007825032230
         H           -0.514247490845    -0.364429378303    -0.892673000000     1.007825032230
         H            1.031910509155    -0.364434374984     0.000000000000     1.007825032230

  Nuclear repulsion =   13.394868819313913

  ==> Basis Set <==

  Basis Set: 6-31G*
    Blend: 6-31G*
    Number of shells: 14
    Number of basis function: 23
    Number of Cartesian functions: 23
    Spherical Harmonics?: false
    Max angular momentum: 2

  ==> DirectJKGrad: Integral-Direct SCF Gradients <==

    Gradient:                    1
    J tasked:                  Yes
    K tasked:                  Yes
    wK tasked:                  No
    Integrals threads:           1
    Schwarz Cutoff:          0E+00

  ==> DFT Potential <==

   => Composite Functional: B3LYP <= 

    B3LYP Hyb-GGA Exchange-Correlation Functional

    P. J. Stephens, F. J. Devlin, C. F. Chabalowski, and M. J. Frisch, J. Phys. Chem. 98, 11623 (1994)

    Deriv               =              1
    GGA                 =           TRUE
    Meta                =          FALSE

    Exchange Hybrid     =           TRUE
    MP2 Hybrid          =          FALSE

   => Exchange Functionals <=

    0.0800   Slater exchange
    0.7200         Becke 88

   => Exact (HF) Exchange <=

    0.2000               HF 

   => Correlation Functionals <=

    0.1900   Vosko, Wilk & Nusair (VWN5_RPA)
    0.8100   Lee, Yang & Parr

   => Molecular Quadrature <=

    Radial Scheme          =       TREUTLER
    Pruning Scheme         =           FLAT
    Nuclear Scheme         =       TREUTLER

    BS radius alpha        =              1
    Pruning alpha          =              1
    Radial Points          =             75
    Spherical Points       =            302
    Total Points           =         110165
    Total Blocks           =            909
    Max Points             =            256
    Max Functions          =             23


  -Total Gradient:
     Atom            X                  Y                   Z
    ------   -----------------  -----------------  -----------------
       1       -0.001604967402    -0.000003505839     0.000000000000
       2        0.000138701638     0.000023555382     0.000000000000
       3        0.000303231783     0.000117560759    -0.000286287267
       4        0.000303231783     0.000117560759     0.000286287267
       5        0.000858600166    -0.000254547899     0.000000000000


*** tstop() called on blueslogin2 at Fri Aug 23 15:30:57 2019
Module time:
	user time   =       0.58 seconds =       0.01 minutes
	system time =       0.01 seconds =       0.00 minutes
	total time  =          0 seconds =       0.00 minutes
Total time:
	user time   =      12.14 seconds =       0.20 minutes
	system time =       0.71 seconds =       0.01 minutes
	total time  =         16 seconds =       0.27 minutes

  //>>>>>>>>>>>>>>>>>>>>>>>>>>>>>>>>>>>//
  //    Loading displacement 3 of 16   //
  //<<<<<<<<<<<<<<<<<<<<<<<<<<<<<<<<<<<//
gradient() will perform analytic gradient computation.

*** tstart() called on blueslogin2
*** at Fri Aug 23 15:30:57 2019

   => Loading Basis Set <=

    Name: 6-31G*
    Role: ORBITAL
    Keyword: BASIS
    atoms 1   entry C          line   111 file /home/elliott/miniconda2/envs/pacc-env-mini/share/psi4/basis/6-31gs.gbs 
    atoms 2-5 entry H          line    44 file /home/elliott/miniconda2/envs/pacc-env-mini/share/psi4/basis/6-31gs.gbs 


         ---------------------------------------------------------
                                   SCF
               by Justin Turney, Rob Parrish, Andy Simmonett
                          and Daniel G. A. Smith
                              RKS Reference
                        1 Threads,    953 MiB Core
         ---------------------------------------------------------

  ==> Geometry <==

    Molecular point group: cs
    Full point group: Cs

    Geometry (in Angstrom), charge = 0, multiplicity = 1:

       Center              X                  Y                   Z               Mass       
    ------------   -----------------  -----------------  -----------------  -----------------
         C            0.000383394776    -0.000000377196     0.000000000000    12.000000000000
         H           -0.001139751634     1.093297622804     0.000000000000     1.007825032230
         H           -0.516527754762    -0.364429376090     0.892673000000     1.007825032230
         H           -0.516527754762    -0.364429376090    -0.892673000000     1.007825032230
         H            1.029630245238    -0.364434379409     0.000000000000     1.007825032230

  Running in cs symmetry.

  Rotational constants: A =      5.24767  B =      5.24765  C =      5.24765 [cm^-1]
  Rotational constants: A = 157321.26277  B = 157320.58251  C = 157320.52630 [MHz]
  Nuclear repulsion =   13.394868794206877

  Charge       = 0
  Multiplicity = 1
  Electrons    = 10
  Nalpha       = 5
  Nbeta        = 5

  ==> Algorithm <==

  SCF Algorithm Type is PK.
  DIIS enabled.
  MOM disabled.
  Fractional occupation disabled.
  Guess Type is SAD.
  Energy threshold   = 1.00e-08
  Density threshold  = 1.00e-08
  Integral threshold = 0.00e+00

  ==> Primary Basis <==

  Basis Set: 6-31G*
    Blend: 6-31G*
    Number of shells: 14
    Number of basis function: 23
    Number of Cartesian functions: 23
    Spherical Harmonics?: false
    Max angular momentum: 2

  ==> DFT Potential <==

   => Composite Functional: B3LYP <= 

    B3LYP Hyb-GGA Exchange-Correlation Functional

    P. J. Stephens, F. J. Devlin, C. F. Chabalowski, and M. J. Frisch, J. Phys. Chem. 98, 11623 (1994)

    Deriv               =              1
    GGA                 =           TRUE
    Meta                =          FALSE

    Exchange Hybrid     =           TRUE
    MP2 Hybrid          =          FALSE

   => Exchange Functionals <=

    0.0800   Slater exchange
    0.7200         Becke 88

   => Exact (HF) Exchange <=

    0.2000               HF 

   => Correlation Functionals <=

    0.1900   Vosko, Wilk & Nusair (VWN5_RPA)
    0.8100   Lee, Yang & Parr

   => Molecular Quadrature <=

    Radial Scheme          =       TREUTLER
    Pruning Scheme         =           FLAT
    Nuclear Scheme         =       TREUTLER

    BS radius alpha        =              1
    Pruning alpha          =              1
    Radial Points          =             75
    Spherical Points       =            302
    Total Points           =         110165
    Total Blocks           =            908
    Max Points             =            255
    Max Functions          =             23

  ==> Pre-Iterations <==

   -------------------------------------------------------
    Irrep   Nso     Nmo     Nalpha   Nbeta   Ndocc  Nsocc
   -------------------------------------------------------
     A'        17      17       0       0       0       0
     A"         6       6       0       0       0       0
   -------------------------------------------------------
    Total      23      23       5       5       5       0
   -------------------------------------------------------

  ==> Integral Setup <==

  Using in-core PK algorithm.
   Calculation information:
      Number of atoms:                   5
      Number of AO shells:              14
      Number of primitives:             31
      Number of atomic orbitals:        23
      Number of basis functions:        23

      Integral cutoff                 1.00e-12
      Number of threads:                 1

  Performing in-core PK
  Using 76452 doubles for integral storage.
  We computed 5565 shell quartets total.
  Whereas there are 5565 unique shell quartets.

  ==> DiskJK: Disk-Based J/K Matrices <==

    J tasked:                  Yes
    K tasked:                  Yes
    wK tasked:                  No
    Memory [MiB]:              641
    Schwarz Cutoff:          1E-12

    OpenMP threads:              1

  Cached 100.0% of DFT collocation blocks in 0.072 [GiB].

  Minimum eigenvalue in the overlap matrix is 1.7960498587E-02.
  Using Symmetric Orthogonalization.

  SCF Guess: Superposition of Atomic Densities via on-the-fly atomic UHF.

  ==> Iterations <==

                        Total Energy        Delta E     RMS |[F,P]|

   @RKS iter SAD:   -40.09236654824053   -4.00924e+01   0.00000e+00 
   @RKS iter   1:   -40.35178828734990   -2.59422e-01   3.17490e-02 DIIS
   @RKS iter   2:   -40.31069959966639    4.10887e-02   3.36420e-02 DIIS
   @RKS iter   3:   -40.51830277920498   -2.07603e-01   5.95284e-04 DIIS
   @RKS iter   4:   -40.51838027552556   -7.74963e-05   5.63607e-05 DIIS
   @RKS iter   5:   -40.51838079742463   -5.21899e-07   3.34937e-06 DIIS
   @RKS iter   6:   -40.51838079921749   -1.79286e-09   2.17561e-07 DIIS
   @RKS iter   7:   -40.51838079922543   -7.93676e-12   4.57173e-08 DIIS
   @RKS iter   8:   -40.51838079922581   -3.83693e-13   6.21067e-10 DIIS
  Energy and wave function converged.


  ==> Post-Iterations <==

    Orbital Energies [Eh]
    ---------------------

    Doubly Occupied:                                                      

       1Ap   -10.166959     2Ap    -0.690289     3Ap    -0.389509  
       4Ap    -0.388939     1App   -0.388732  

    Virtual:                                                              

       5Ap     0.117910     2App    0.176253     6Ap     0.176429  
       7Ap     0.176911     8Ap     0.533041     9Ap     0.533323  
       3App    0.533426     4App    0.897022    10Ap     0.897451  
      11Ap     0.898633    12Ap     0.947430    13Ap     1.099845  
       5App    1.656524    14Ap     1.656524     6App    2.242899  
      15Ap     2.243329    16Ap     2.244499    17Ap     4.179147  

    Final Occupation by Irrep:
             Ap   App 
    DOCC [     4,    1 ]

  @RKS Final Energy:   -40.51838079922581

   => Energetics <=

    Nuclear Repulsion Energy =             13.3948687942068769
    One-Electron Energy =                 -79.7582423120411761
    Two-Electron Energy =                  31.4318020879778537
    DFT Exchange-Correlation Energy =      -5.5868093693693650
    Empirical Dispersion Energy =           0.0000000000000000
    VV10 Nonlocal Energy =                  0.0000000000000000
    Total Energy =                        -40.5183807992258096

Computation Completed


Properties will be evaluated at   0.000000,   0.000000,   0.000000 [a0]

Properties computed using the SCF density matrix

  Nuclear Dipole Moment: [e a0]
     X:    -0.0043      Y:     0.0000      Z:     0.0000

  Electronic Dipole Moment: [e a0]
     X:     0.0043      Y:    -0.0000      Z:     0.0000

  Dipole Moment: [e a0]
     X:     0.0000      Y:     0.0000      Z:     0.0000     Total:     0.0000

  Dipole Moment: [D]
     X:     0.0000      Y:     0.0000      Z:     0.0000     Total:     0.0000


*** tstop() called on blueslogin2 at Fri Aug 23 15:31:01 2019
Module time:
	user time   =       3.27 seconds =       0.05 minutes
	system time =       0.09 seconds =       0.00 minutes
	total time  =          4 seconds =       0.07 minutes
Total time:
	user time   =      15.42 seconds =       0.26 minutes
	system time =       0.80 seconds =       0.01 minutes
	total time  =         20 seconds =       0.33 minutes

*** tstart() called on blueslogin2
*** at Fri Aug 23 15:31:01 2019


         ------------------------------------------------------------
                                   SCF GRAD                          
                          Rob Parrish, Justin Turney,                
                       Andy Simmonett, and Alex Sokolov              
         ------------------------------------------------------------

  ==> Geometry <==

    Molecular point group: cs
    Full point group: Cs

    Geometry (in Angstrom), charge = 0, multiplicity = 1:

       Center              X                  Y                   Z               Mass       
    ------------   -----------------  -----------------  -----------------  -----------------
         C            0.000383394776    -0.000000377196     0.000000000000    12.000000000000
         H           -0.001139751634     1.093297622804     0.000000000000     1.007825032230
         H           -0.516527754762    -0.364429376090     0.892673000000     1.007825032230
         H           -0.516527754762    -0.364429376090    -0.892673000000     1.007825032230
         H            1.029630245238    -0.364434379409     0.000000000000     1.007825032230

  Nuclear repulsion =   13.394868794206877

  ==> Basis Set <==

  Basis Set: 6-31G*
    Blend: 6-31G*
    Number of shells: 14
    Number of basis function: 23
    Number of Cartesian functions: 23
    Spherical Harmonics?: false
    Max angular momentum: 2

  ==> DirectJKGrad: Integral-Direct SCF Gradients <==

    Gradient:                    1
    J tasked:                  Yes
    K tasked:                  Yes
    wK tasked:                  No
    Integrals threads:           1
    Schwarz Cutoff:          0E+00

  ==> DFT Potential <==

   => Composite Functional: B3LYP <= 

    B3LYP Hyb-GGA Exchange-Correlation Functional

    P. J. Stephens, F. J. Devlin, C. F. Chabalowski, and M. J. Frisch, J. Phys. Chem. 98, 11623 (1994)

    Deriv               =              1
    GGA                 =           TRUE
    Meta                =          FALSE

    Exchange Hybrid     =           TRUE
    MP2 Hybrid          =          FALSE

   => Exchange Functionals <=

    0.0800   Slater exchange
    0.7200         Becke 88

   => Exact (HF) Exchange <=

    0.2000               HF 

   => Correlation Functionals <=

    0.1900   Vosko, Wilk & Nusair (VWN5_RPA)
    0.8100   Lee, Yang & Parr

   => Molecular Quadrature <=

    Radial Scheme          =       TREUTLER
    Pruning Scheme         =           FLAT
    Nuclear Scheme         =       TREUTLER

    BS radius alpha        =              1
    Pruning alpha          =              1
    Radial Points          =             75
    Spherical Points       =            302
    Total Points           =         110165
    Total Blocks           =            908
    Max Points             =            255
    Max Functions          =             23


  -Total Gradient:
     Atom            X                  Y                   Z
    ------   -----------------  -----------------  -----------------
       1        0.001612158835    -0.000003650884     0.000000000000
       2       -0.000138923987     0.000023556104     0.000000000000
       3       -0.000325496171    -0.000130723651     0.000321837864
       4       -0.000325496171    -0.000130723651    -0.000321837864
       5       -0.000823456127     0.000242007419     0.000000000000


*** tstop() called on blueslogin2 at Fri Aug 23 15:31:01 2019
Module time:
	user time   =       0.58 seconds =       0.01 minutes
	system time =       0.00 seconds =       0.00 minutes
	total time  =          0 seconds =       0.00 minutes
Total time:
	user time   =      16.00 seconds =       0.27 minutes
	system time =       0.80 seconds =       0.01 minutes
	total time  =         20 seconds =       0.33 minutes

  //>>>>>>>>>>>>>>>>>>>>>>>>>>>>>>>>>>>//
  //    Loading displacement 4 of 16   //
  //<<<<<<<<<<<<<<<<<<<<<<<<<<<<<<<<<<<//
gradient() will perform analytic gradient computation.

*** tstart() called on blueslogin2
*** at Fri Aug 23 15:31:01 2019

   => Loading Basis Set <=

    Name: 6-31G*
    Role: ORBITAL
    Keyword: BASIS
    atoms 1   entry C          line   111 file /home/elliott/miniconda2/envs/pacc-env-mini/share/psi4/basis/6-31gs.gbs 
    atoms 2-5 entry H          line    44 file /home/elliott/miniconda2/envs/pacc-env-mini/share/psi4/basis/6-31gs.gbs 


         ---------------------------------------------------------
                                   SCF
               by Justin Turney, Rob Parrish, Andy Simmonett
                          and Daniel G. A. Smith
                              RKS Reference
                        1 Threads,    953 MiB Core
         ---------------------------------------------------------

  ==> Geometry <==

    Molecular point group: cs
    Full point group: Cs

    Geometry (in Angstrom), charge = 0, multiplicity = 1:

       Center              X                  Y                   Z               Mass       
    ------------   -----------------  -----------------  -----------------  -----------------
         C            0.000000377196    -0.000383394776     0.000000000000    12.000000000000
         H            0.000000374850     1.094437753980     0.000000000000     1.007825032230
         H           -0.515387622021    -0.363289247126     0.892673000000     1.007825032230
         H           -0.515387622021    -0.363289247126    -0.892673000000     1.007825032230
         H            1.030770377979    -0.363294243808     0.000000000000     1.007825032230

  Running in cs symmetry.

  Rotational constants: A =      5.24767  B =      5.24766  C =      5.24765 [cm^-1]
  Rotational constants: A = 157321.04144  B = 157320.74763  C = 157320.58251 [MHz]
  Nuclear repulsion =   13.394868776976560

  Charge       = 0
  Multiplicity = 1
  Electrons    = 10
  Nalpha       = 5
  Nbeta        = 5

  ==> Algorithm <==

  SCF Algorithm Type is PK.
  DIIS enabled.
  MOM disabled.
  Fractional occupation disabled.
  Guess Type is SAD.
  Energy threshold   = 1.00e-08
  Density threshold  = 1.00e-08
  Integral threshold = 0.00e+00

  ==> Primary Basis <==

  Basis Set: 6-31G*
    Blend: 6-31G*
    Number of shells: 14
    Number of basis function: 23
    Number of Cartesian functions: 23
    Spherical Harmonics?: false
    Max angular momentum: 2

  ==> DFT Potential <==

   => Composite Functional: B3LYP <= 

    B3LYP Hyb-GGA Exchange-Correlation Functional

    P. J. Stephens, F. J. Devlin, C. F. Chabalowski, and M. J. Frisch, J. Phys. Chem. 98, 11623 (1994)

    Deriv               =              1
    GGA                 =           TRUE
    Meta                =          FALSE

    Exchange Hybrid     =           TRUE
    MP2 Hybrid          =          FALSE

   => Exchange Functionals <=

    0.0800   Slater exchange
    0.7200         Becke 88

   => Exact (HF) Exchange <=

    0.2000               HF 

   => Correlation Functionals <=

    0.1900   Vosko, Wilk & Nusair (VWN5_RPA)
    0.8100   Lee, Yang & Parr

   => Molecular Quadrature <=

    Radial Scheme          =       TREUTLER
    Pruning Scheme         =           FLAT
    Nuclear Scheme         =       TREUTLER

    BS radius alpha        =              1
    Pruning alpha          =              1
    Radial Points          =             75
    Spherical Points       =            302
    Total Points           =         110158
    Total Blocks           =            908
    Max Points             =            256
    Max Functions          =             23

  ==> Pre-Iterations <==

   -------------------------------------------------------
    Irrep   Nso     Nmo     Nalpha   Nbeta   Ndocc  Nsocc
   -------------------------------------------------------
     A'        17      17       0       0       0       0
     A"         6       6       0       0       0       0
   -------------------------------------------------------
    Total      23      23       5       5       5       0
   -------------------------------------------------------

  ==> Integral Setup <==

  Using in-core PK algorithm.
   Calculation information:
      Number of atoms:                   5
      Number of AO shells:              14
      Number of primitives:             31
      Number of atomic orbitals:        23
      Number of basis functions:        23

      Integral cutoff                 1.00e-12
      Number of threads:                 1

  Performing in-core PK
  Using 76452 doubles for integral storage.
  We computed 5565 shell quartets total.
  Whereas there are 5565 unique shell quartets.

  ==> DiskJK: Disk-Based J/K Matrices <==

    J tasked:                  Yes
    K tasked:                  Yes
    wK tasked:                  No
    Memory [MiB]:              641
    Schwarz Cutoff:          1E-12

    OpenMP threads:              1

  Cached 100.0% of DFT collocation blocks in 0.072 [GiB].

  Minimum eigenvalue in the overlap matrix is 1.7960498683E-02.
  Using Symmetric Orthogonalization.

  SCF Guess: Superposition of Atomic Densities via on-the-fly atomic UHF.

  ==> Iterations <==

                        Total Energy        Delta E     RMS |[F,P]|

   @RKS iter SAD:   -40.09236822240922   -4.00924e+01   0.00000e+00 
   @RKS iter   1:   -40.35178909483876   -2.59421e-01   3.17490e-02 DIIS
   @RKS iter   2:   -40.31070058837962    4.10885e-02   3.36419e-02 DIIS
   @RKS iter   3:   -40.51830358767380   -2.07603e-01   5.95285e-04 DIIS
   @RKS iter   4:   -40.51838108434541   -7.74967e-05   5.63614e-05 DIIS
   @RKS iter   5:   -40.51838160625741   -5.21912e-07   3.34954e-06 DIIS
   @RKS iter   6:   -40.51838160805040   -1.79299e-09   2.18002e-07 DIIS
   @RKS iter   7:   -40.51838160805839   -7.99361e-12   4.58827e-08 DIIS
   @RKS iter   8:   -40.51838160805876   -3.69482e-13   6.22255e-10 DIIS
  Energy and wave function converged.


  ==> Post-Iterations <==

    Orbital Energies [Eh]
    ---------------------

    Doubly Occupied:                                                      

       1Ap   -10.166959     2Ap    -0.690290     3Ap    -0.389293  
       1App   -0.389293     4Ap    -0.388596  

    Virtual:                                                              

       5Ap     0.117910     6Ap     0.176137     2App    0.176727  
       7Ap     0.176727     8Ap     0.533148     3App    0.533148  
       9Ap     0.533491    10Ap     0.896734     4App    0.898185  
      11Ap     0.898186    12Ap     0.947430    13Ap     1.099843  
       5App    1.656523    14Ap     1.656524    15Ap     2.242625  
      16Ap     2.244051     6App    2.244051    17Ap     4.179147  

    Final Occupation by Irrep:
             Ap   App 
    DOCC [     4,    1 ]

  @RKS Final Energy:   -40.51838160805876

   => Energetics <=

    Nuclear Repulsion Energy =             13.3948687769765602
    One-Electron Energy =                 -79.7582430425761686
    Two-Electron Energy =                  31.4318026155576469
    DFT Exchange-Correlation Energy =      -5.5868099580167980
    Empirical Dispersion Energy =           0.0000000000000000
    VV10 Nonlocal Energy =                  0.0000000000000000
    Total Energy =                        -40.5183816080587604

Computation Completed


Properties will be evaluated at   0.000000,   0.000000,   0.000000 [a0]

Properties computed using the SCF density matrix

  Nuclear Dipole Moment: [e a0]
     X:    -0.0000      Y:     0.0043      Z:     0.0000

  Electronic Dipole Moment: [e a0]
     X:     0.0000      Y:    -0.0043      Z:     0.0000

  Dipole Moment: [e a0]
     X:    -0.0000      Y:    -0.0000      Z:     0.0000     Total:     0.0000

  Dipole Moment: [D]
     X:    -0.0000      Y:    -0.0000      Z:     0.0000     Total:     0.0000


*** tstop() called on blueslogin2 at Fri Aug 23 15:31:05 2019
Module time:
	user time   =       3.28 seconds =       0.05 minutes
	system time =       0.09 seconds =       0.00 minutes
	total time  =          4 seconds =       0.07 minutes
Total time:
	user time   =      19.29 seconds =       0.32 minutes
	system time =       0.89 seconds =       0.01 minutes
	total time  =         24 seconds =       0.40 minutes

*** tstart() called on blueslogin2
*** at Fri Aug 23 15:31:05 2019


         ------------------------------------------------------------
                                   SCF GRAD                          
                          Rob Parrish, Justin Turney,                
                       Andy Simmonett, and Alex Sokolov              
         ------------------------------------------------------------

  ==> Geometry <==

    Molecular point group: cs
    Full point group: Cs

    Geometry (in Angstrom), charge = 0, multiplicity = 1:

       Center              X                  Y                   Z               Mass       
    ------------   -----------------  -----------------  -----------------  -----------------
         C            0.000000377196    -0.000383394776     0.000000000000    12.000000000000
         H            0.000000374850     1.094437753980     0.000000000000     1.007825032230
         H           -0.515387622021    -0.363289247126     0.892673000000     1.007825032230
         H           -0.515387622021    -0.363289247126    -0.892673000000     1.007825032230
         H            1.030770377979    -0.363294243808     0.000000000000     1.007825032230

  Nuclear repulsion =   13.394868776976560

  ==> Basis Set <==

  Basis Set: 6-31G*
    Blend: 6-31G*
    Number of shells: 14
    Number of basis function: 23
    Number of Cartesian functions: 23
    Spherical Harmonics?: false
    Max angular momentum: 2

  ==> DirectJKGrad: Integral-Direct SCF Gradients <==

    Gradient:                    1
    J tasked:                  Yes
    K tasked:                  Yes
    wK tasked:                  No
    Integrals threads:           1
    Schwarz Cutoff:          0E+00

  ==> DFT Potential <==

   => Composite Functional: B3LYP <= 

    B3LYP Hyb-GGA Exchange-Correlation Functional

    P. J. Stephens, F. J. Devlin, C. F. Chabalowski, and M. J. Frisch, J. Phys. Chem. 98, 11623 (1994)

    Deriv               =              1
    GGA                 =           TRUE
    Meta                =          FALSE

    Exchange Hybrid     =           TRUE
    MP2 Hybrid          =          FALSE

   => Exchange Functionals <=

    0.0800   Slater exchange
    0.7200         Becke 88

   => Exact (HF) Exchange <=

    0.2000               HF 

   => Correlation Functionals <=

    0.1900   Vosko, Wilk & Nusair (VWN5_RPA)
    0.8100   Lee, Yang & Parr

   => Molecular Quadrature <=

    Radial Scheme          =       TREUTLER
    Pruning Scheme         =           FLAT
    Nuclear Scheme         =       TREUTLER

    BS radius alpha        =              1
    Pruning alpha          =              1
    Radial Points          =             75
    Spherical Points       =            302
    Total Points           =         110158
    Total Blocks           =            908
    Max Points             =            256
    Max Functions          =             23


  -Total Gradient:
     Atom            X                  Y                   Z
    ------   -----------------  -----------------  -----------------
       1       -0.000000690052    -0.001604763943     0.000000000000
       2       -0.000000831031     0.000946788512     0.000000000000
       3        0.000113131839     0.000218448310    -0.000196542227
       4        0.000113131839     0.000218448310     0.000196542227
       5       -0.000226849149     0.000218636618     0.000000000000


*** tstop() called on blueslogin2 at Fri Aug 23 15:31:05 2019
Module time:
	user time   =       0.57 seconds =       0.01 minutes
	system time =       0.01 seconds =       0.00 minutes
	total time  =          0 seconds =       0.00 minutes
Total time:
	user time   =      19.87 seconds =       0.33 minutes
	system time =       0.90 seconds =       0.02 minutes
	total time  =         24 seconds =       0.40 minutes

  //>>>>>>>>>>>>>>>>>>>>>>>>>>>>>>>>>>>//
  //    Loading displacement 5 of 16   //
  //<<<<<<<<<<<<<<<<<<<<<<<<<<<<<<<<<<<//
gradient() will perform analytic gradient computation.

*** tstart() called on blueslogin2
*** at Fri Aug 23 15:31:05 2019

   => Loading Basis Set <=

    Name: 6-31G*
    Role: ORBITAL
    Keyword: BASIS
    atoms 1   entry C          line   111 file /home/elliott/miniconda2/envs/pacc-env-mini/share/psi4/basis/6-31gs.gbs 
    atoms 2-5 entry H          line    44 file /home/elliott/miniconda2/envs/pacc-env-mini/share/psi4/basis/6-31gs.gbs 


         ---------------------------------------------------------
                                   SCF
               by Justin Turney, Rob Parrish, Andy Simmonett
                          and Daniel G. A. Smith
                              RKS Reference
                        1 Threads,    953 MiB Core
         ---------------------------------------------------------

  ==> Geometry <==

    Molecular point group: cs
    Full point group: Cs

    Geometry (in Angstrom), charge = 0, multiplicity = 1:

       Center              X                  Y                   Z               Mass       
    ------------   -----------------  -----------------  -----------------  -----------------
         C            0.000000377196     0.000382640383     0.000000000000    12.000000000000
         H            0.000000379543     1.092157491627     0.000000000000     1.007825032230
         H           -0.515387623586    -0.365569507267     0.892673000000     1.007825032230
         H           -0.515387623586    -0.365569507267    -0.892673000000     1.007825032230
         H            1.030770376414    -0.365574510585     0.000000000000     1.007825032230

  Running in cs symmetry.

  Rotational constants: A =      5.24767  B =      5.24766  C =      5.24765 [cm^-1]
  Rotational constants: A = 157321.04141  B = 157320.74900  C = 157320.58387 [MHz]
  Nuclear repulsion =   13.394868836402853

  Charge       = 0
  Multiplicity = 1
  Electrons    = 10
  Nalpha       = 5
  Nbeta        = 5

  ==> Algorithm <==

  SCF Algorithm Type is PK.
  DIIS enabled.
  MOM disabled.
  Fractional occupation disabled.
  Guess Type is SAD.
  Energy threshold   = 1.00e-08
  Density threshold  = 1.00e-08
  Integral threshold = 0.00e+00

  ==> Primary Basis <==

  Basis Set: 6-31G*
    Blend: 6-31G*
    Number of shells: 14
    Number of basis function: 23
    Number of Cartesian functions: 23
    Spherical Harmonics?: false
    Max angular momentum: 2

  ==> DFT Potential <==

   => Composite Functional: B3LYP <= 

    B3LYP Hyb-GGA Exchange-Correlation Functional

    P. J. Stephens, F. J. Devlin, C. F. Chabalowski, and M. J. Frisch, J. Phys. Chem. 98, 11623 (1994)

    Deriv               =              1
    GGA                 =           TRUE
    Meta                =          FALSE

    Exchange Hybrid     =           TRUE
    MP2 Hybrid          =          FALSE

   => Exchange Functionals <=

    0.0800   Slater exchange
    0.7200         Becke 88

   => Exact (HF) Exchange <=

    0.2000               HF 

   => Correlation Functionals <=

    0.1900   Vosko, Wilk & Nusair (VWN5_RPA)
    0.8100   Lee, Yang & Parr

   => Molecular Quadrature <=

    Radial Scheme          =       TREUTLER
    Pruning Scheme         =           FLAT
    Nuclear Scheme         =       TREUTLER

    BS radius alpha        =              1
    Pruning alpha          =              1
    Radial Points          =             75
    Spherical Points       =            302
    Total Points           =         110168
    Total Blocks           =            909
    Max Points             =            256
    Max Functions          =             23

  ==> Pre-Iterations <==

   -------------------------------------------------------
    Irrep   Nso     Nmo     Nalpha   Nbeta   Ndocc  Nsocc
   -------------------------------------------------------
     A'        17      17       0       0       0       0
     A"         6       6       0       0       0       0
   -------------------------------------------------------
    Total      23      23       5       5       5       0
   -------------------------------------------------------

  ==> Integral Setup <==

  Using in-core PK algorithm.
   Calculation information:
      Number of atoms:                   5
      Number of AO shells:              14
      Number of primitives:             31
      Number of atomic orbitals:        23
      Number of basis functions:        23

      Integral cutoff                 1.00e-12
      Number of threads:                 1

  Performing in-core PK
  Using 76452 doubles for integral storage.
  We computed 5565 shell quartets total.
  Whereas there are 5565 unique shell quartets.

  ==> DiskJK: Disk-Based J/K Matrices <==

    J tasked:                  Yes
    K tasked:                  Yes
    wK tasked:                  No
    Memory [MiB]:              641
    Schwarz Cutoff:          1E-12

    OpenMP threads:              1

  Cached 100.0% of DFT collocation blocks in 0.072 [GiB].

  Minimum eigenvalue in the overlap matrix is 1.7960498236E-02.
  Using Symmetric Orthogonalization.

  SCF Guess: Superposition of Atomic Densities via on-the-fly atomic UHF.

  ==> Iterations <==

                        Total Energy        Delta E     RMS |[F,P]|

   @RKS iter SAD:   -40.09236826493973   -4.00924e+01   0.00000e+00 
   @RKS iter   1:   -40.35178911151224   -2.59421e-01   3.17491e-02 DIIS
   @RKS iter   2:   -40.31070060723209    4.10885e-02   3.36419e-02 DIIS
   @RKS iter   3:   -40.51830361219390   -2.07603e-01   5.95285e-04 DIIS
   @RKS iter   4:   -40.51838110889092   -7.74967e-05   5.63613e-05 DIIS
   @RKS iter   5:   -40.51838163080068   -5.21910e-07   3.34929e-06 DIIS
   @RKS iter   6:   -40.51838163259349   -1.79281e-09   2.17125e-07 DIIS
   @RKS iter   7:   -40.51838163260145   -7.96518e-12   4.55752e-08 DIIS
   @RKS iter   8:   -40.51838163260182   -3.62377e-13   6.20976e-10 DIIS
  Energy and wave function converged.


  ==> Post-Iterations <==

    Orbital Energies [Eh]
    ---------------------

    Doubly Occupied:                                                      

       1Ap   -10.166959     2Ap    -0.690290     3Ap    -0.389523  
       4Ap    -0.388829     1App   -0.388829  

    Virtual:                                                              

       5Ap     0.117910     2App    0.176334     6Ap     0.176334  
       7Ap     0.176923     8Ap     0.533032     9Ap     0.533378  
       3App    0.533378     4App    0.897220    10Ap     0.897221  
      11Ap     0.898663    12Ap     0.947430    13Ap     1.099843  
       5App    1.656523    14Ap     1.656524    15Ap     2.243096  
       6App    2.243097    16Ap     2.244534    17Ap     4.179147  

    Final Occupation by Irrep:
             Ap   App 
    DOCC [     4,    1 ]

  @RKS Final Energy:   -40.51838163260182

   => Energetics <=

    Nuclear Repulsion Energy =             13.3948688364028534
    One-Electron Energy =                 -79.7582431500707969
    Two-Electron Energy =                  31.4318026645991715
    DFT Exchange-Correlation Energy =      -5.5868099835330360
    Empirical Dispersion Energy =           0.0000000000000000
    VV10 Nonlocal Energy =                  0.0000000000000000
    Total Energy =                        -40.5183816326018089

Computation Completed


Properties will be evaluated at   0.000000,   0.000000,   0.000000 [a0]

Properties computed using the SCF density matrix

  Nuclear Dipole Moment: [e a0]
     X:    -0.0000      Y:    -0.0043      Z:     0.0000

  Electronic Dipole Moment: [e a0]
     X:     0.0000      Y:     0.0043      Z:     0.0000

  Dipole Moment: [e a0]
     X:    -0.0000      Y:     0.0000      Z:     0.0000     Total:     0.0000

  Dipole Moment: [D]
     X:    -0.0000      Y:     0.0000      Z:     0.0000     Total:     0.0000


*** tstop() called on blueslogin2 at Fri Aug 23 15:31:09 2019
Module time:
	user time   =       3.25 seconds =       0.05 minutes
	system time =       0.12 seconds =       0.00 minutes
	total time  =          4 seconds =       0.07 minutes
Total time:
	user time   =      23.13 seconds =       0.39 minutes
	system time =       1.02 seconds =       0.02 minutes
	total time  =         28 seconds =       0.47 minutes

*** tstart() called on blueslogin2
*** at Fri Aug 23 15:31:09 2019


         ------------------------------------------------------------
                                   SCF GRAD                          
                          Rob Parrish, Justin Turney,                
                       Andy Simmonett, and Alex Sokolov              
         ------------------------------------------------------------

  ==> Geometry <==

    Molecular point group: cs
    Full point group: Cs

    Geometry (in Angstrom), charge = 0, multiplicity = 1:

       Center              X                  Y                   Z               Mass       
    ------------   -----------------  -----------------  -----------------  -----------------
         C            0.000000377196     0.000382640383     0.000000000000    12.000000000000
         H            0.000000379543     1.092157491627     0.000000000000     1.007825032230
         H           -0.515387623586    -0.365569507267     0.892673000000     1.007825032230
         H           -0.515387623586    -0.365569507267    -0.892673000000     1.007825032230
         H            1.030770376414    -0.365574510585     0.000000000000     1.007825032230

  Nuclear repulsion =   13.394868836402853

  ==> Basis Set <==

  Basis Set: 6-31G*
    Blend: 6-31G*
    Number of shells: 14
    Number of basis function: 23
    Number of Cartesian functions: 23
    Spherical Harmonics?: false
    Max angular momentum: 2

  ==> DirectJKGrad: Integral-Direct SCF Gradients <==

    Gradient:                    1
    J tasked:                  Yes
    K tasked:                  Yes
    wK tasked:                  No
    Integrals threads:           1
    Schwarz Cutoff:          0E+00

  ==> DFT Potential <==

   => Composite Functional: B3LYP <= 

    B3LYP Hyb-GGA Exchange-Correlation Functional

    P. J. Stephens, F. J. Devlin, C. F. Chabalowski, and M. J. Frisch, J. Phys. Chem. 98, 11623 (1994)

    Deriv               =              1
    GGA                 =           TRUE
    Meta                =          FALSE

    Exchange Hybrid     =           TRUE
    MP2 Hybrid          =          FALSE

   => Exchange Functionals <=

    0.0800   Slater exchange
    0.7200         Becke 88

   => Exact (HF) Exchange <=

    0.2000               HF 

   => Correlation Functionals <=

    0.1900   Vosko, Wilk & Nusair (VWN5_RPA)
    0.8100   Lee, Yang & Parr

   => Molecular Quadrature <=

    Radial Scheme          =       TREUTLER
    Pruning Scheme         =           FLAT
    Nuclear Scheme         =       TREUTLER

    BS radius alpha        =              1
    Pruning alpha          =              1
    Radial Points          =             75
    Spherical Points       =            302
    Total Points           =         110168
    Total Blocks           =            909
    Max Points             =            256
    Max Functions          =             23


  -Total Gradient:
     Atom            X                  Y                   Z
    ------   -----------------  -----------------  -----------------
       1       -0.000000714431     0.001612106165     0.000000000000
       2       -0.000000818034    -0.000910842767     0.000000000000
       3       -0.000135134035    -0.000234706868     0.000233475130
       4       -0.000135134035    -0.000234706868    -0.000233475130
       5        0.000269670135    -0.000234532011     0.000000000000


*** tstop() called on blueslogin2 at Fri Aug 23 15:31:09 2019
Module time:
	user time   =       0.57 seconds =       0.01 minutes
	system time =       0.01 seconds =       0.00 minutes
	total time  =          0 seconds =       0.00 minutes
Total time:
	user time   =      23.70 seconds =       0.39 minutes
	system time =       1.03 seconds =       0.02 minutes
	total time  =         28 seconds =       0.47 minutes

  //>>>>>>>>>>>>>>>>>>>>>>>>>>>>>>>>>>>//
  //    Loading displacement 6 of 16   //
  //<<<<<<<<<<<<<<<<<<<<<<<<<<<<<<<<<<<//
gradient() will perform analytic gradient computation.

*** tstart() called on blueslogin2
*** at Fri Aug 23 15:31:09 2019

   => Loading Basis Set <=

    Name: 6-31G*
    Role: ORBITAL
    Keyword: BASIS
    atoms 1   entry C          line   111 file /home/elliott/miniconda2/envs/pacc-env-mini/share/psi4/basis/6-31gs.gbs 
    atoms 2-5 entry H          line    44 file /home/elliott/miniconda2/envs/pacc-env-mini/share/psi4/basis/6-31gs.gbs 


         ---------------------------------------------------------
                                   SCF
               by Justin Turney, Rob Parrish, Andy Simmonett
                          and Daniel G. A. Smith
                              RKS Reference
                        1 Threads,    953 MiB Core
         ---------------------------------------------------------

  ==> Geometry <==

    Molecular point group: cs
    Full point group: Cs

    Geometry (in Angstrom), charge = 0, multiplicity = 1:

       Center              X                  Y                   Z               Mass       
    ------------   -----------------  -----------------  -----------------  -----------------
         C            0.000000377196    -0.000000377196     0.000000000000    12.000000000000
         H           -0.001613589833     1.093297620589     0.000000000000     1.007825032230
         H           -0.514849631333    -0.363668546710     0.892673000000     1.007825032230
         H           -0.514849631333    -0.363668546710    -0.892673000000     1.007825032230
         H            1.031308361285    -0.365956035956     0.000000000000     1.007825032230

  Running in cs symmetry.

  Rotational constants: A =      5.25542  B =      5.24765  C =      5.23992 [cm^-1]
  Rotational constants: A = 157553.62820  B = 157320.58383  C = 157088.84873 [MHz]
  Nuclear repulsion =   13.394866016454159

  Charge       = 0
  Multiplicity = 1
  Electrons    = 10
  Nalpha       = 5
  Nbeta        = 5

  ==> Algorithm <==

  SCF Algorithm Type is PK.
  DIIS enabled.
  MOM disabled.
  Fractional occupation disabled.
  Guess Type is SAD.
  Energy threshold   = 1.00e-08
  Density threshold  = 1.00e-08
  Integral threshold = 0.00e+00

  ==> Primary Basis <==

  Basis Set: 6-31G*
    Blend: 6-31G*
    Number of shells: 14
    Number of basis function: 23
    Number of Cartesian functions: 23
    Spherical Harmonics?: false
    Max angular momentum: 2

  ==> DFT Potential <==

   => Composite Functional: B3LYP <= 

    B3LYP Hyb-GGA Exchange-Correlation Functional

    P. J. Stephens, F. J. Devlin, C. F. Chabalowski, and M. J. Frisch, J. Phys. Chem. 98, 11623 (1994)

    Deriv               =              1
    GGA                 =           TRUE
    Meta                =          FALSE

    Exchange Hybrid     =           TRUE
    MP2 Hybrid          =          FALSE

   => Exchange Functionals <=

    0.0800   Slater exchange
    0.7200         Becke 88

   => Exact (HF) Exchange <=

    0.2000               HF 

   => Correlation Functionals <=

    0.1900   Vosko, Wilk & Nusair (VWN5_RPA)
    0.8100   Lee, Yang & Parr

   => Molecular Quadrature <=

    Radial Scheme          =       TREUTLER
    Pruning Scheme         =           FLAT
    Nuclear Scheme         =       TREUTLER

    BS radius alpha        =              1
    Pruning alpha          =              1
    Radial Points          =             75
    Spherical Points       =            302
    Total Points           =         110165
    Total Blocks           =            910
    Max Points             =            256
    Max Functions          =             23

  ==> Pre-Iterations <==

   -------------------------------------------------------
    Irrep   Nso     Nmo     Nalpha   Nbeta   Ndocc  Nsocc
   -------------------------------------------------------
     A'        17      17       0       0       0       0
[...]
Module time:
	user time   =       3.36 seconds =       0.06 minutes
	system time =       0.08 seconds =       0.00 minutes
	total time  =          3 seconds =       0.05 minutes
Total time:
	user time   =      65.68 seconds =       1.09 minutes
	system time =       2.02 seconds =       0.03 minutes
	total time  =         71 seconds =       1.18 minutes

*** tstart() called on blueslogin2
*** at Fri Aug 23 15:31:52 2019


         ------------------------------------------------------------
                                   SCF GRAD                          
                          Rob Parrish, Justin Turney,                
                       Andy Simmonett, and Alex Sokolov              
         ------------------------------------------------------------

  ==> Geometry <==

    Molecular point group: c1
    Full point group: C1

    Geometry (in Angstrom), charge = 0, multiplicity = 1:

       Center              X                  Y                   Z               Mass       
    ------------   -----------------  -----------------  -----------------  -----------------
         C            0.000000377196    -0.000000377196     0.000000000000    12.000000000000
         H            0.000000377196     1.093297622804     0.000000000000     1.007825032230
         H           -0.516705421257    -0.364429372935     0.893433829811     1.007825032230
         H           -0.514069824350    -0.364429381458    -0.891912170189     1.007825032230
         H            1.030770377196    -0.364434377196    -0.001521659622     1.007825032230

  Nuclear repulsion =   13.394871942550138

  ==> Basis Set <==

  Basis Set: 6-31G*
    Blend: 6-31G*
    Number of shells: 14
    Number of basis function: 23
    Number of Cartesian functions: 23
    Spherical Harmonics?: false
    Max angular momentum: 2

  ==> DirectJKGrad: Integral-Direct SCF Gradients <==

    Gradient:                    1
    J tasked:                  Yes
    K tasked:                  Yes
    wK tasked:                  No
    Integrals threads:           1
    Schwarz Cutoff:          0E+00

  ==> DFT Potential <==

   => Composite Functional: B3LYP <= 

    B3LYP Hyb-GGA Exchange-Correlation Functional

    P. J. Stephens, F. J. Devlin, C. F. Chabalowski, and M. J. Frisch, J. Phys. Chem. 98, 11623 (1994)

    Deriv               =              1
    GGA                 =           TRUE
    Meta                =          FALSE

    Exchange Hybrid     =           TRUE
    MP2 Hybrid          =          FALSE

   => Exchange Functionals <=

    0.0800   Slater exchange
    0.7200         Becke 88

   => Exact (HF) Exchange <=

    0.2000               HF 

   => Correlation Functionals <=

    0.1900   Vosko, Wilk & Nusair (VWN5_RPA)
    0.8100   Lee, Yang & Parr

   => Molecular Quadrature <=

    Radial Scheme          =       TREUTLER
    Pruning Scheme         =           FLAT
    Nuclear Scheme         =       TREUTLER

    BS radius alpha        =              1
    Pruning alpha          =              1
    Radial Points          =             75
    Spherical Points       =            302
    Total Points           =         110157
    Total Blocks           =            897
    Max Points             =            256
    Max Functions          =             23


  -Total Gradient:
     Atom            X                  Y                   Z
    ------   -----------------  -----------------  -----------------
       1       -0.000003715846    -0.000002421828    -0.001052220371
       2       -0.000000074388     0.000023112878     0.000018615183
       3       -0.000533060937    -0.000205622327     0.000662805768
       4        0.000513654581     0.000193587420     0.000630634142
       5        0.000020981616    -0.000008132217    -0.000259731721


*** tstop() called on blueslogin2 at Fri Aug 23 15:31:53 2019
Module time:
	user time   =       0.57 seconds =       0.01 minutes
	system time =       0.01 seconds =       0.00 minutes
	total time  =          1 seconds =       0.02 minutes
Total time:
	user time   =      66.25 seconds =       1.10 minutes
	system time =       2.03 seconds =       0.03 minutes
	total time  =         72 seconds =       1.20 minutes

         ----------------------------------------------------------
                                   FINDIF
                     R. A. King and Jonathon Misiewicz
         ---------------------------------------------------------

  Computing second-derivative from gradients using projected, 
  symmetry-adapted, cartesian coordinates.

  16 gradients passed in, including the reference geometry.
  Generating complete list of displacements from unique ones.

    Operation 2 takes plus displacements of irrep A" to minus ones.

-------------------------------------------------------------


  ==> Harmonic Vibrational Analysis <==

  non-mass-weighted Hessian:       Symmetric? True   Hermitian? True   Lin Dep Dim?  6 (0)
  projection of translations (True) and rotations (True) removed 6 degrees of freedom (6)
  total projector:                 Symmetric? True   Hermitian? True   Lin Dep Dim?  6 (6)
  mass-weighted Hessian:           Symmetric? True   Hermitian? True   Lin Dep Dim?  6 (0)
  pre-proj  low-frequency mode:    0.0000i [cm^-1]
  pre-proj  low-frequency mode:    0.0000i [cm^-1]
  pre-proj  low-frequency mode:    0.0000i [cm^-1]
  pre-proj  low-frequency mode:    0.0000  [cm^-1]
  pre-proj  low-frequency mode:    0.0000  [cm^-1]
  pre-proj  low-frequency mode:    0.0000  [cm^-1]
  pre-proj  all modes:['0.0000i' '0.0000i' '0.0000i' '0.0000' '0.0000' '0.0000' '1373.1238'
 '1373.1535' '1373.1625' '1593.1561' '1593.1752' '3053.2004' '3162.9887'
 '3162.9891' '3163.0001']
  projected mass-weighted Hessian: Symmetric? True   Hermitian? True   Lin Dep Dim?  6 (6)
  post-proj low-frequency mode:    0.0001i [cm^-1] (TR)
  post-proj low-frequency mode:    0.0000i [cm^-1] (TR)
  post-proj low-frequency mode:    0.0000  [cm^-1] (TR)
  post-proj low-frequency mode:    0.0000  [cm^-1] (TR)
  post-proj low-frequency mode:    0.0000  [cm^-1] (TR)
  post-proj low-frequency mode:    0.0000  [cm^-1] (TR)
  post-proj  all modes:['0.0001i' '0.0000i' '0.0000' '0.0000' '0.0000' '0.0000' '1373.1238'
 '1373.1535' '1373.1625' '1593.1561' '1593.1752' '3053.2004' '3162.9887'
 '3162.9891' '3163.0001']

  Vibration                       7                   8                   9           
  Freq [cm^-1]                1373.1238           1373.1535           1373.1625       
  Irrep                           Ap                 App                  Ap          
  Reduced mass [u]              1.1787              1.1787              1.1787        
  Force const [mDyne/A]         1.3094              1.3095              1.3095        
  Turning point v=0 [a0]        0.2727              0.2727              0.2727        
  RMS dev v=0 [a0 u^1/2]        0.2094              0.2094              0.2094        
  Char temp [K]               1975.6194           1975.6621           1975.6751       
  ----------------------------------------------------------------------------------
      1   C               -0.02 -0.12  0.00   -0.00 -0.00 -0.12   -0.12  0.02  0.00   
      2   H                0.12 -0.09 -0.00    0.00 -0.00  0.60    0.59  0.02 -0.00   
      3   H               -0.02  0.49  0.24    0.27  0.19  0.14    0.46 -0.21  0.23   
      4   H               -0.02  0.49 -0.24   -0.27 -0.19  0.14    0.46 -0.21 -0.23   
      5   H                0.21  0.56 -0.00    0.00  0.00  0.60   -0.06  0.11 -0.00   

  Vibration                       10                  11                  12          
  Freq [cm^-1]                1593.1561           1593.1752           3053.2004       
  Irrep                          App                  Ap                  Ap          
  Reduced mass [u]              1.0078              1.0078              1.0078        
  Force const [mDyne/A]         1.5071              1.5072              5.5354        
  Turning point v=0 [a0]        0.2738              0.2738              0.1978        
  RMS dev v=0 [a0 u^1/2]        0.1944              0.1944              0.1404        
  Char temp [K]               2292.1970           2292.2244           4392.8756       
  ----------------------------------------------------------------------------------
      1   C               -0.00 -0.00 -0.00   -0.00 -0.00  0.00    0.00  0.00 -0.00   
      2   H               -0.00 -0.00  0.50    0.50 -0.00  0.00    0.00  0.50 -0.00   
      3   H               -0.29  0.41  0.00   -0.33 -0.24 -0.29   -0.24 -0.17  0.41   
      4   H                0.29 -0.41  0.00   -0.33 -0.24  0.29   -0.24 -0.17 -0.41   
      5   H               -0.00 -0.00 -0.50    0.17  0.47 -0.00    0.47 -0.17  0.00   

  Vibration                       13                  14                  15          
  Freq [cm^-1]                3162.9887           3162.9891           3163.0001       
  Irrep                           Ap                 App                  Ap          
  Reduced mass [u]              1.1019              1.1019              1.1019        
  Force const [mDyne/A]         6.4949              6.4949              6.4950        
  Turning point v=0 [a0]        0.1859              0.1859              0.1859        
  RMS dev v=0 [a0 u^1/2]        0.1380              0.1380              0.1380        
  Char temp [K]               4550.8366           4550.8370           4550.8529       
  ----------------------------------------------------------------------------------
      1   C               -0.08 -0.04 -0.00    0.00  0.00 -0.09    0.04 -0.08  0.00   
      2   H               -0.02  0.37 -0.00    0.00 -0.00 -0.02    0.01  0.78  0.00   
      3   H                0.22  0.16 -0.41   -0.34 -0.24  0.57    0.05  0.01 -0.07   
      4   H                0.22  0.16  0.41    0.34  0.24  0.57    0.05  0.01  0.07   
      5   H                0.57 -0.22 -0.00   -0.00  0.00 -0.02   -0.58  0.19  0.00   

  ==> Thermochemistry Components <==

  Entropy, S
    Electronic S            0.000 [cal/(mol K)]        0.000 [J/(mol K)]       0.00000000 [mEh/K] (multiplicity = 1)
    Translational S        34.261 [cal/(mol K)]      143.349 [J/(mol K)]       0.05459877 [mEh/K] (mol. weight = 16.0313 [u], P = 101325.00 [Pa])
    Rotational S           15.076 [cal/(mol K)]       63.077 [J/(mol K)]       0.02402467 [mEh/K] (symmetry no. = 1)
    Vibrational S           0.076 [cal/(mol K)]        0.319 [J/(mol K)]       0.00012140 [mEh/K]
  Total S                  49.413 [cal/(mol K)]      206.745 [J/(mol K)]       0.07874485 [mEh/K]
  Correction S              0.000 [cal/(mol K)]        0.000 [J/(mol K)]       0.00000000 [mEh/K]

  Constant volume heat capacity, Cv
    Electronic Cv           0.000 [cal/(mol K)]        0.000 [J/(mol K)]       0.00000000 [mEh/K]
    Translational Cv        2.981 [cal/(mol K)]       12.472 [J/(mol K)]       0.00475022 [mEh/K]
    Rotational Cv           2.981 [cal/(mol K)]       12.472 [J/(mol K)]       0.00475022 [mEh/K]
    Vibrational Cv          0.456 [cal/(mol K)]        1.908 [J/(mol K)]       0.00072668 [mEh/K]
  Total Cv                  6.418 [cal/(mol K)]       26.851 [J/(mol K)]       0.01022711 [mEh/K]
  Correction Cv             0.000 [cal/(mol K)]        0.000 [J/(mol K)]       0.00000000 [mEh/K]

  Constant pressure heat capacity, Cp
    Electronic Cp           0.000 [cal/(mol K)]        0.000 [J/(mol K)]       0.00000000 [mEh/K]
    Translational Cp        4.968 [cal/(mol K)]       20.786 [J/(mol K)]       0.00791703 [mEh/K]
    Rotational Cp           2.981 [cal/(mol K)]       12.472 [J/(mol K)]       0.00475022 [mEh/K]
    Vibrational Cp          0.456 [cal/(mol K)]        1.908 [J/(mol K)]       0.00072668 [mEh/K]
  Total Cp                  8.405 [cal/(mol K)]       35.166 [J/(mol K)]       0.01339392 [mEh/K]
  Correction Cp             0.000 [cal/(mol K)]        0.000 [J/(mol K)]       0.00000000 [mEh/K]

  ==> Thermochemistry Energy Analysis <==

  Raw electronic energy, E0
  Total E0, Electronic energy at well bottom at 0 [K]                  -40.51838346 [Eh]

  Zero-point energy, ZPE_vib = Sum_i nu_i / 2
    Electronic ZPE          0.000 [kcal/mol]        0.000 [kJ/mol]       0.00000000 [Eh]
    Translational ZPE       0.000 [kcal/mol]        0.000 [kJ/mol]       0.00000000 [Eh]
    Rotational ZPE          0.000 [kcal/mol]        0.000 [kJ/mol]       0.00000000 [Eh]
    Vibrational ZPE        28.374 [kcal/mol]      118.717 [kJ/mol]       0.04521696 [Eh]        9923.975 [cm^-1]
  Correction ZPE           28.374 [kcal/mol]      118.717 [kJ/mol]       0.04521696 [Eh]        9923.975 [cm^-1]
  Total ZPE, Electronic energy at 0 [K]                                -40.47316650 [Eh]

  Thermal Energy, E (includes ZPE)
    Electronic E            0.000 [kcal/mol]        0.000 [kJ/mol]       0.00000000 [Eh]
    Translational E         0.889 [kcal/mol]        3.718 [kJ/mol]       0.00141628 [Eh]
    Rotational E            0.889 [kcal/mol]        3.718 [kJ/mol]       0.00141628 [Eh]
    Vibrational E          28.394 [kcal/mol]      118.800 [kJ/mol]       0.04524853 [Eh]
  Correction E             30.171 [kcal/mol]      126.237 [kJ/mol]       0.04808108 [Eh]
  Total E, Electronic energy at  298.15 [K]                            -40.47030237 [Eh]

  Enthalpy, H_trans = E_trans + k_B * T
    Electronic H            0.000 [kcal/mol]        0.000 [kJ/mol]       0.00000000 [Eh]
    Translational H         1.481 [kcal/mol]        6.197 [kJ/mol]       0.00236046 [Eh]
    Rotational H            0.889 [kcal/mol]        3.718 [kJ/mol]       0.00141628 [Eh]
    Vibrational H          28.394 [kcal/mol]      118.800 [kJ/mol]       0.04524853 [Eh]
  Correction H             30.764 [kcal/mol]      128.716 [kJ/mol]       0.04902527 [Eh]
  Total H, Enthalpy at  298.15 [K]                                     -40.46935819 [Eh]

  Gibbs free energy, G = H - T * S
    Electronic G            0.000 [kcal/mol]        0.000 [kJ/mol]       0.00000000 [Eh]
    Translational G        -8.734 [kcal/mol]      -36.542 [kJ/mol]      -0.01391816 [Eh]
    Rotational G           -3.606 [kcal/mol]      -15.088 [kJ/mol]      -0.00574668 [Eh]
    Vibrational G          28.371 [kcal/mol]      118.705 [kJ/mol]       0.04521233 [Eh]
  Correction G             16.031 [kcal/mol]       67.075 [kJ/mol]       0.02554749 [Eh]
  Total G, Free enthalpy at  298.15 [K]                                -40.49283596 [Eh]
  ## Hessian (Symmetry 0) ##
  Irrep: 1 Size: 15 x 15

                 1                   2                   3                   4                   5

    1     0.55885364834746    -0.00000290412894     0.00000000000000    -0.04822527713814     0.00000134181523
    2    -0.00000290412894     0.55883887609906     0.00000000000000     0.00000124747718    -0.32269034822779
    3     0.00000000000000     0.00000000000000     0.55884911676268     0.00000000000000     0.00000000000000
    4    -0.04822527713814     0.00000124747718     0.00000000000000     0.04674028197168    -0.00000039853299
    5     0.00000134181523    -0.32269034822779     0.00000000000000    -0.00000039853299     0.34872211516163
    6     0.00000000000000     0.00000000000000    -0.04822492049913     0.00000000000000     0.00000000000000
    7    -0.10921688552937    -0.04312665253210     0.10564250269706    -0.00058409415298     0.00032773623475
    8    -0.04312723480797    -0.07871612957131     0.07469829221104    -0.01635044519899    -0.00867721013265
    9     0.10564082472562     0.07469930565263    -0.23120034382086    -0.00186886914704    -0.00056861113230
   10    -0.10921688552937    -0.04312665253210    -0.10564250269706    -0.00058409415298     0.00032773623475
   11    -0.04312723480797    -0.07871612957131    -0.07469829221104    -0.01635044519899    -0.00867721013265
   12    -0.10564082472562    -0.07469930565263    -0.23120034382086     0.00186886914704     0.00056861113230
   13    -0.29219460015058     0.08625496171596     0.00000000000000     0.00265318347242    -0.00065641575174
   14     0.08625603193093    -0.07871626872866     0.00000000000000     0.03270004145368    -0.00867734666855
   15     0.00000000000000     0.00000000000000    -0.04822350862183     0.00000000000000     0.00000000000000

                 6                   7                   8                   9                  10

    1     0.00000000000000    -0.10921688552937    -0.04312723480797     0.10564082472562    -0.10921688552937
    2     0.00000000000000    -0.04312665253210    -0.07871612957131     0.07469930565263    -0.04312665253210
    3    -0.04822492049913     0.10564250269706     0.07469829221104    -0.23120034382086    -0.10564250269706
    4     0.00000000000000    -0.00058409415298    -0.01635044519899    -0.00186886914704    -0.00058409415298
    5     0.00000000000000     0.00032773623475    -0.00867721013265    -0.00056861113230     0.00032773623475
    6     0.04674019679175    -0.00186846528678     0.02831938213046     0.00157366377878     0.00186846528678
    7    -0.00186846528678     0.11384634416927     0.04745112327209    -0.11623160720037     0.00876733027808
    8     0.02831938213046     0.04745112327209     0.08029152132548    -0.08218722084110     0.00737446705051
    9     0.00157366377878    -0.11623160720037    -0.08218722084110     0.24805790455882     0.01361822904450
   10     0.00186846528678     0.00876733027808     0.00737446705051     0.01361822904450     0.11384634416927
   11    -0.02831938213046     0.00737446705051     0.00355098151667     0.00962931868480     0.04745112327209
   12     0.00157366377878    -0.01361822904450    -0.00962931868480    -0.02000505623596     0.11623160720037
   13     0.00000000000000    -0.01281269476500     0.00465208968436    -0.00115857742271    -0.01281269476500
   14     0.00000000000000    -0.01202667402550     0.00355083686171    -0.00157279236379    -0.01202667402550
   15    -0.00166260385019     0.02607579883459    -0.01120113481561     0.00157383171922    -0.02607579883459

                11                  12                  13                  14                  15

    1    -0.04312723480797    -0.10564082472562    -0.29219460015058     0.08625603193093     0.00000000000000
    2    -0.07871612957131    -0.07469930565263     0.08625496171596    -0.07871626872866     0.00000000000000
    3    -0.07469829221104    -0.23120034382086     0.00000000000000     0.00000000000000    -0.04822350862183
    4    -0.01635044519899     0.00186886914704     0.00265318347242     0.03270004145368     0.00000000000000
    5    -0.00867721013265     0.00056861113230    -0.00065641575174    -0.00867734666855     0.00000000000000
    6    -0.02831938213046     0.00157366377878     0.00000000000000     0.00000000000000    -0.00166260385019
    7     0.00737446705051    -0.01361822904450    -0.01281269476500    -0.01202667402550     0.02607579883459
    8     0.00355098151667    -0.00962931868480     0.00465208968436     0.00355083686171    -0.01120113481561
    9     0.00962931868480    -0.02000505623596    -0.00115857742271    -0.00157279236379     0.00157383171922
   10     0.04745112327209     0.11623160720037    -0.01281269476500    -0.01202667402550    -0.02607579883459
   11     0.08029152132548     0.08218722084110     0.00465208968436     0.00355083686171     0.01120113481561
   12     0.08218722084110     0.24805790455882     0.00115857742271     0.00157279236379     0.00157383171922
   13     0.00465208968436     0.00115857742271     0.31516680620816    -0.09490272533361     0.00000000000000
   14     0.00355083686171     0.00157279236379    -0.09490272533361     0.08029194167399     0.00000000000000
   15     0.01120113481561     0.00157383171922     0.00000000000000     0.00000000000000     0.04673844903358




    Psi4 stopped on: Friday, 23 August 2019 03:31PM
    Psi4 wall time for execution: 0:01:11.87

*** Psi4 exiting successfully. Buy a developer a beer!
