 Entering Gaussian System, Link 0=g09
 Input=run.inp
 Output=run.out
 Initial command:
 /soft/gaussian/09-e.01/g09/l1.exe "/blues/gpfs/home/elliott/Packages/PACC/moldriver/rcdriver/rundir/RXN/CH3.H2/MDUSDFXREFXETQ/0_0/2_1/UHFFFAOYSA-N/CH4.H/HXBDELFRWIQQII/0_0/1_2/UHFFFAOYSA-N/2/ezvlpJU/TS/RUN/OPTI/A00/Gau-45905.inp" -scrdir="/blues/gpfs/home/elliott/Packages/PACC/moldriver/rcdriver/rundir/RXN/CH3.H2/MDUSDFXREFXETQ/0_0/2_1/UHFFFAOYSA-N/CH4.H/HXBDELFRWIQQII/0_0/1_2/UHFFFAOYSA-N/2/ezvlpJU/TS/RUN/OPTI/A00/"
 Entering Link 1 = /soft/gaussian/09-e.01/g09/l1.exe PID=     45906.
  
 Copyright (c) 1988,1990,1992,1993,1995,1998,2003,2009,2015,
            Gaussian, Inc.  All Rights Reserved.
  
 This is part of the Gaussian(R) 09 program.  It is based on
 the Gaussian(R) 03 system (copyright 2003, Gaussian, Inc.),
 the Gaussian(R) 98 system (copyright 1998, Gaussian, Inc.),
 the Gaussian(R) 94 system (copyright 1995, Gaussian, Inc.),
 the Gaussian 92(TM) system (copyright 1992, Gaussian, Inc.),
 the Gaussian 90(TM) system (copyright 1990, Gaussian, Inc.),
 the Gaussian 88(TM) system (copyright 1988, Gaussian, Inc.),
 the Gaussian 86(TM) system (copyright 1986, Carnegie Mellon
 University), and the Gaussian 82(TM) system (copyright 1983,
 Carnegie Mellon University). Gaussian is a federally registered
 trademark of Gaussian, Inc.
  
 This software contains proprietary and confidential information,
 including trade secrets, belonging to Gaussian, Inc.
  
 This software is provided under written license and may be
 used, copied, transmitted, or stored only in accord with that
 written license.
  
 The following legend is applicable only to US Government
 contracts under FAR:
  
                    RESTRICTED RIGHTS LEGEND
  
 Use, reproduction and disclosure by the US Government is
 subject to restrictions as set forth in subparagraphs (a)
 and (c) of the Commercial Computer Software - Restricted
 Rights clause in FAR 52.227-19.
  
 Gaussian, Inc.
 340 Quinnipiac St., Bldg. 40, Wallingford CT 06492
  
  
 ---------------------------------------------------------------
 Warning -- This program may not be used in any manner that
 competes with the business of Gaussian, Inc. or will provide
 assistance to any competitor of Gaussian, Inc.  The licensee
 of this program is prohibited from giving any competitor of
 Gaussian, Inc. access to this program.  By using this program,
 the user acknowledges that Gaussian, Inc. is engaged in the
 business of creating and licensing software in the field of
 computational chemistry and represents and warrants to the
 licensee that it is not a competitor of Gaussian, Inc. and that
 it will not use this program in any manner prohibited above.
 ---------------------------------------------------------------
  

 Cite this work as:
 Gaussian 09, Revision E.01,
 M. J. Frisch, G. W. Trucks, H. B. Schlegel, G. E. Scuseria, 
 M. A. Robb, J. R. Cheeseman, G. Scalmani, V. Barone, B. Mennucci, 
 G. A. Petersson, H. Nakatsuji, M. Caricato, X. Li, H. P. Hratchian, 
 A. F. Izmaylov, J. Bloino, G. Zheng, J. L. Sonnenberg, M. Hada, 
 M. Ehara, K. Toyota, R. Fukuda, J. Hasegawa, M. Ishida, T. Nakajima, 
 Y. Honda, O. Kitao, H. Nakai, T. Vreven, J. A. Montgomery, Jr., 
 J. E. Peralta, F. Ogliaro, M. Bearpark, J. J. Heyd, E. Brothers, 
 K. N. Kudin, V. N. Staroverov, T. Keith, R. Kobayashi, J. Normand, 
 K. Raghavachari, A. Rendell, J. C. Burant, S. S. Iyengar, J. Tomasi, 
 M. Cossi, N. Rega, J. M. Millam, M. Klene, J. E. Knox, J. B. Cross, 
 V. Bakken, C. Adamo, J. Jaramillo, R. Gomperts, R. E. Stratmann, 
 O. Yazyev, A. J. Austin, R. Cammi, C. Pomelli, J. W. Ochterski, 
 R. L. Martin, K. Morokuma, V. G. Zakrzewski, G. A. Voth, 
 P. Salvador, J. J. Dannenberg, S. Dapprich, A. D. Daniels, 
 O. Farkas, J. B. Foresman, J. V. Ortiz, J. Cioslowski, 
 and D. J. Fox, Gaussian, Inc., Wallingford CT, 2013.
 
 ******************************************
 Gaussian 09:  ES64L-G09RevE.01 30-Nov-2015
                23-Aug-2019 
 ******************************************
 %mem=20GB
 %NProcShared=10
 Will use up to   10 processors via shared memory.
 ----------------------------------------------------------------------
 #P b3lyp/6-31g* # SCF=(xqc) # POpt=(CALCFC,TS,NOEIGEN) # int=ultrafine
 ----------------------------------------------------------------------
 1/5=1,10=4,11=1,14=-1,26=4,38=1/1,3;
 2/12=2,17=6,18=5,29=3,40=1/2;
 3/5=1,6=6,7=1,11=2,16=1,25=1,30=1,71=2,74=-5,75=-5,140=1/1,2,3;
 4//1;
 5/5=2,8=3,13=1,38=5/2,8;
 8/6=4,10=90,11=11/1;
 11/6=1,8=1,9=11,15=111,16=1/1,2,10;
 10/6=1,13=1/2;
 6/7=2,8=2,9=2,10=2,28=1/1;
 7/10=1,18=20,25=1/1,2,3,16;
 1/5=1,10=4,11=1,14=-1,26=4/3(2);
 2/29=3/2;
 99//99;
 2/29=3/2;
 3/5=1,6=6,7=1,11=2,16=1,25=1,30=1,71=1,74=-5,75=-5/1,2,3;
 4/5=5,16=3,69=1/1;
 5/5=2,8=3,13=1,38=5/2,8;
 7//1,2,3,16;
 1/5=1,11=1,14=-1,26=4/3(-5);
 2/29=3/2;
 6/7=2,8=2,9=2,10=2,19=2,28=1/1;
 99/9=1/99;
 Leave Link    1 at Fri Aug 23 16:09:28 2019, MaxMem=  2684354560 cpu:         0.7
 (Enter /soft/gaussian/09-e.01/g09/l101.exe)
 --------
 comment:
 --------
 Symbolic Z-matrix:
 Charge =  0 Multiplicity = 2
 C
 H                    1    R1
 H                    1    R2       2    A2
 H                    1    R3       2    A3       3    D3       0
 H                    1    R4       2    A4       3    D4       0
 X                    5    R5       1    A5       2    D5       0
 H                    5    R6       6    A6       1    D6       0
       Variables:
  R1                    1.0828                   
  R2                    1.0828                   
  A2                  119.9119                   
  R3                    1.0828                   
  A3                  119.9138                   
  D3                  174.266                    
  R4                    2.5651                   
  A4                   91.1716                   
  D4                  267.4987                   
  D6                  179.8327                   
  A6                   90.1962                   
  R6                    0.8829                   
       Constants:
  R5                    1.                       
  A5                   90.                       
  D5                  180.                       
 
 NAtoms=      6 NQM=        6 NQMF=       0 NMMI=      0 NMMIF=      0
                NMic=       0 NMicF=      0.
                    Isotopes and Nuclear Properties:
 (Nuclear quadrupole moments (NQMom) in fm**2, nuclear magnetic moments (NMagM)
  in nuclear magnetons)

  Atom         1           2           3           4           5           6
 IAtWgt=          12           1           1           1           1           1
 AtmWgt=  12.0000000   1.0078250   1.0078250   1.0078250   1.0078250   1.0078250
 NucSpn=           0           1           1           1           1           1
 AtZEff=   0.0000000   0.0000000   0.0000000   0.0000000   0.0000000   0.0000000
 NQMom=    0.0000000   0.0000000   0.0000000   0.0000000   0.0000000   0.0000000
 NMagM=    0.0000000   2.7928460   2.7928460   2.7928460   2.7928460   2.7928460
 AtZNuc=   6.0000000   1.0000000   1.0000000   1.0000000   1.0000000   1.0000000
 Leave Link  101 at Fri Aug 23 16:09:28 2019, MaxMem=  2684354560 cpu:         0.7
 (Enter /soft/gaussian/09-e.01/g09/l103.exe)

 GradGradGradGradGradGradGradGradGradGradGradGradGradGradGradGradGradGrad
 Berny optimization.
 Initialization pass.
                       ----------------------------
                       !    Initial Parameters    !
                       ! (Angstroms and Degrees)  !
 ----------------------                            ----------------------
 !      Name          Value   Derivative information (Atomic Units)     !
 ------------------------------------------------------------------------
 !       R1          1.0828   calculate D2E/DX2 analytically            !
 !       R2          1.0828   calculate D2E/DX2 analytically            !
 !       A2        119.9119   calculate D2E/DX2 analytically            !
 !       R3          1.0828   calculate D2E/DX2 analytically            !
 !       A3        119.9138   calculate D2E/DX2 analytically            !
 !       D3        174.266    calculate D2E/DX2 analytically            !
 !       R4          2.5651   calculate D2E/DX2 analytically            !
 !       A4         91.1716   calculate D2E/DX2 analytically            !
 !       D4        267.4987   calculate D2E/DX2 analytically            !
 !       D6        179.8327   calculate D2E/DX2 analytically            !
 !       A6         90.1962   calculate D2E/DX2 analytically            !
 !       R6          0.8829   calculate D2E/DX2 analytically            !
 !       R5          1.0      frozen, calculate D2E/DX2 analytically    !
 !       A5         90.0      frozen, calculate D2E/DX2 analytically    !
 !       D5        180.0      frozen, calculate D2E/DX2 analytically    !
 ------------------------------------------------------------------------
 Trust Radius=3.00D-01 FncErr=1.00D-07 GrdErr=1.00D-06
 Number of steps in this run=     25 maximum allowed number of steps=    100.
 Search for a saddle point of order  1.
 GradGradGradGradGradGradGradGradGradGradGradGradGradGradGradGradGradGrad

 Leave Link  103 at Fri Aug 23 16:09:28 2019, MaxMem=  2684354560 cpu:         0.2
 (Enter /soft/gaussian/09-e.01/g09/l202.exe)
 ---------------------------------------------------------------------------------------------------
                            Z-MATRIX (ANGSTROMS AND DEGREES)
   CD    Cent   Atom    N1       Length/X        N2       Alpha/Y        N3        Beta/Z          J
 ---------------------------------------------------------------------------------------------------
      1      1  C 
      2      2  H        1   1.082800(     1)
      3      3  H        1   1.082800(     2)      2  119.912(     7)
      4      4  H        1   1.082800(     3)      2  119.914(     8)      3  174.266(    12)      0
      5      5  H        1   2.565100(     4)      2   91.172(     9)      3  267.499(    13)      0
      6         X        5   1.000000(     5)      1   90.000(    10)      2  180.000(    14)      0
      7      6  H        5   0.882900(     6)      6   90.196(    11)      1  179.833(    15)      0
 ---------------------------------------------------------------------------------------------------
                         Z-Matrix orientation:                         
 ---------------------------------------------------------------------
 Center     Atomic      Atomic             Coordinates (Angstroms)
 Number     Number       Type             X           Y           Z
 ---------------------------------------------------------------------
      1          6           0        0.000000    0.000000    0.000000
      2          1           0        0.000000    0.000000    1.082800
      3          1           0        0.938564    0.000000   -0.539957
      4          1           0       -0.933850   -0.093770   -0.539989
      5          1           0       -0.111923    2.562120   -0.052448
      6         -1           0       -0.111030    2.541693   -1.052239
      7          1           0       -0.147873    3.444160   -0.067478
 ---------------------------------------------------------------------
                    Distance matrix (angstroms):
                    1          2          3          4          5
     1  C    0.000000
     2  H    1.082800   0.000000
     3  H    1.082800   1.874632   0.000000
     4  H    1.082800   1.874650   1.874760   0.000000
     5  H    2.565100   2.804599   2.811698   2.822590   0.000000
     6  X    2.753132   3.321283   2.797192   2.808042   1.000000
     7  H    3.447993   3.634177   3.642227   3.654857   0.882900
                    6          7
     6  X    0.000000
     7  H    1.336248   0.000000
 Stoichiometry    CH5(2)
 Framework group  C1[X(CH5)]
 Deg. of freedom    12
 Full point group                 C1      NOp   1
 Largest Abelian subgroup         C1      NOp   1
 Largest concise Abelian subgroup C1      NOp   1
                         Standard orientation:                         
 ---------------------------------------------------------------------
 Center     Atomic      Atomic             Coordinates (Angstroms)
 Number     Number       Type             X           Y           Z
 ---------------------------------------------------------------------
      1          6           0        0.538106    0.000287    0.000653
      2          1           0        0.558393   -0.268007    1.049491
      3          1           0        0.567670    1.042733   -0.290702
      4          1           0        0.582177   -0.773416   -0.755587
      5          1           0       -2.026988   -0.001997   -0.004463
      6          1           0       -2.909886   -0.001036   -0.002655
 ---------------------------------------------------------------------
 Rotational constants (GHZ):    142.6947711     27.6190448     27.6184128
 Leave Link  202 at Fri Aug 23 16:09:28 2019, MaxMem=  2684354560 cpu:         0.2
 (Enter /soft/gaussian/09-e.01/g09/l301.exe)
 Standard basis: 6-31G(d) (6D, 7F)
 Ernie: Thresh=  0.10000D-02 Tol=  0.10000D-05 Strict=F.
 There are    25 symmetry adapted cartesian basis functions of A   symmetry.
 There are    25 symmetry adapted basis functions of A   symmetry.
    25 basis functions,    48 primitive gaussians,    25 cartesian basis functions
     6 alpha electrons        5 beta electrons
       nuclear repulsion energy        13.4016959372 Hartrees.
 IExCor=  402 DFT=T Ex+Corr=B3LYP ExCW=0 ScaHFX=  0.200000
 ScaDFX=  0.800000  0.720000  1.000000  0.810000 ScalE2=  1.000000  1.000000
 IRadAn=      5 IRanWt=     -1 IRanGd=            0 ICorTp=0 IEmpDi=  4
 NAtoms=    6 NActive=    6 NUniq=    6 SFac= 1.00D+00 NAtFMM=   60 NAOKFM=F Big=F
 Integral buffers will be    131072 words long.
 Raffenetti 2 integral format.
 Two-electron integral symmetry is turned on.
 Leave Link  301 at Fri Aug 23 16:09:28 2019, MaxMem=  2684354560 cpu:         0.7
 (Enter /soft/gaussian/09-e.01/g09/l302.exe)
 NPDir=0 NMtPBC=     1 NCelOv=     1 NCel=       1 NClECP=     1 NCelD=      1
         NCelK=      1 NCelE2=     1 NClLst=     1 CellRange=     0.0.
 One-electron integrals computed using PRISM.
 NBasis=    25 RedAO= T EigKep=  2.62D-02  NBF=    25
 NBsUse=    25 1.00D-06 EigRej= -1.00D+00 NBFU=    25
 Precomputing XC quadrature grid using
 IXCGrd= 4 IRadAn=           5 IRanWt=          -1 IRanGd=           0 AccXCQ= 0.00D+00.
 Generated NRdTot=       0 NPtTot=           0 NUsed=           0 NTot=          32
 NSgBfM=    25    25    25    25    25 MxSgAt=     6 MxSgA2=     6.
 Leave Link  302 at Fri Aug 23 16:09:28 2019, MaxMem=  2684354560 cpu:         1.9
 (Enter /soft/gaussian/09-e.01/g09/l303.exe)
 DipDrv:  MaxL=1.
 Leave Link  303 at Fri Aug 23 16:09:28 2019, MaxMem=  2684354560 cpu:         0.2
 (Enter /soft/gaussian/09-e.01/g09/l401.exe)
 ExpMin= 1.61D-01 ExpMax= 3.05D+03 ExpMxC= 4.57D+02 IAcc=3 IRadAn=         5 AccDes= 0.00D+00
 Harris functional with IExCor=  402 and IRadAn=       5 diagonalized for initial guess.
 HarFok:  IExCor=  402 AccDes= 0.00D+00 IRadAn=         5 IDoV= 1 UseB2=F ITyADJ=14
 ICtDFT=  3500011 ScaDFX=  1.000000  1.000000  1.000000  1.000000
 FoFCou: FMM=F IPFlag=           0 FMFlag=      100000 FMFlg1=           0
         NFxFlg=           0 DoJE=T BraDBF=F KetDBF=T FulRan=T
         wScrn=  0.000000 ICntrl=     500 IOpCl=  0 I1Cent=   200000004 NGrid=           0
         NMat0=    1 NMatS0=      1 NMatT0=    0 NMatD0=    1 NMtDS0=    0 NMtDT0=    0
 Petite list used in FoFCou.
 Harris En= -40.9983200245733    
 JPrj=0 DoOrth=F DoCkMO=F.
 Initial guess <Sx>= 0.0000 <Sy>= 0.0000 <Sz>= 0.5000 <S**2>= 0.7500 S= 0.5000
 Leave Link  401 at Fri Aug 23 16:09:29 2019, MaxMem=  2684354560 cpu:         2.2
 (Enter /soft/gaussian/09-e.01/g09/l502.exe)
 UHF open shell SCF:
 Using DIIS extrapolation, IDIIS=  1040.
 Integral symmetry usage will be decided dynamically.
 Keep R1 and R2 ints in memory in canonical form, NReq=976418.
 IVT=        8268 IEndB=        8268 NGot=  2684354560 MDV=  2684240343
 LenX=  2684240343 LenY=  2684239277
 Requested convergence on RMS density matrix=1.00D-08 within  64 cycles.
 Requested convergence on MAX density matrix=1.00D-06.
 Requested convergence on             energy=1.00D-06.
 No special actions if energy rises.
 FoFCou: FMM=F IPFlag=           0 FMFlag=           0 FMFlg1=           0
         NFxFlg=           0 DoJE=F BraDBF=F KetDBF=F FulRan=T
         wScrn=  0.000000 ICntrl=     600 IOpCl=  0 I1Cent=           0 NGrid=           0
         NMat0=    1 NMatS0=    325 NMatT0=    0 NMatD0=    1 NMtDS0=    0 NMtDT0=    0
 Symmetry not used in FoFCou.
 Integral accuracy reduced to 1.0D-05 until final iterations.

 Cycle   1  Pass 0  IDiag  1:
 E= -40.9589940530376    
 DIIS: error= 5.30D-02 at cycle   1 NSaved=   1.
 NSaved= 1 IEnMin= 1 EnMin= -40.9589940530376     IErMin= 1 ErrMin= 5.30D-02
 ErrMax= 5.30D-02  0.00D+00 EMaxC= 1.00D-01 BMatC= 1.53D-01 BMatP= 1.53D-01
 IDIUse=3 WtCom= 4.70D-01 WtEn= 5.30D-01
 Coeff-Com:  0.100D+01
 Coeff-En:   0.100D+01
 Coeff:      0.100D+01
 Gap=     0.228 Goal=   None    Shift=    0.000
 Gap=     0.430 Goal=   None    Shift=    0.000
 GapD=    0.228 DampG=1.000 DampE=0.500 DampFc=0.5000 IDamp=-1.
 Damping current iteration by 5.00D-01
 RMSDP=1.44D-02 MaxDP=1.54D-01              OVMax= 1.40D-01

 Cycle   2  Pass 0  IDiag  1:
 E= -40.9815248043673     Delta-E=       -0.022530751330 Rises=F Damp=T
 DIIS: error= 9.54D-03 at cycle   2 NSaved=   2.
 NSaved= 2 IEnMin= 2 EnMin= -40.9815248043673     IErMin= 2 ErrMin= 9.54D-03
 ErrMax= 9.54D-03  0.00D+00 EMaxC= 1.00D-01 BMatC= 6.70D-03 BMatP= 1.53D-01
 IDIUse=3 WtCom= 9.05D-01 WtEn= 9.54D-02
 Coeff-Com: -0.568D-02 0.101D+01
 Coeff-En:   0.000D+00 0.100D+01
 Coeff:     -0.514D-02 0.101D+01
 Gap=     0.309 Goal=   None    Shift=    0.000
 Gap=     0.355 Goal=   None    Shift=    0.000
 RMSDP=2.25D-03 MaxDP=1.73D-02 DE=-2.25D-02 OVMax= 9.07D-02

 Cycle   3  Pass 0  IDiag  1:
 E= -41.0048584216099     Delta-E=       -0.023333617243 Rises=F Damp=F
 DIIS: error= 2.10D-03 at cycle   3 NSaved=   3.
 NSaved= 3 IEnMin= 3 EnMin= -41.0048584216099     IErMin= 3 ErrMin= 2.10D-03
 ErrMax= 2.10D-03  0.00D+00 EMaxC= 1.00D-01 BMatC= 2.15D-04 BMatP= 6.70D-03
 IDIUse=3 WtCom= 9.79D-01 WtEn= 2.10D-02
 Coeff-Com: -0.241D-01 0.694D-01 0.955D+00
 Coeff-En:   0.000D+00 0.000D+00 0.100D+01
 Coeff:     -0.236D-01 0.680D-01 0.956D+00
 Gap=     0.309 Goal=   None    Shift=    0.000
 Gap=     0.335 Goal=   None    Shift=    0.000
 RMSDP=3.50D-04 MaxDP=3.25D-03 DE=-2.33D-02 OVMax= 4.96D-03

 Cycle   4  Pass 0  IDiag  1:
 E= -41.0049503755528     Delta-E=       -0.000091953943 Rises=F Damp=F
 DIIS: error= 3.46D-04 at cycle   4 NSaved=   4.
 NSaved= 4 IEnMin= 4 EnMin= -41.0049503755528     IErMin= 4 ErrMin= 3.46D-04
 ErrMax= 3.46D-04  0.00D+00 EMaxC= 1.00D-01 BMatC= 1.06D-05 BMatP= 2.15D-04
 IDIUse=3 WtCom= 9.97D-01 WtEn= 3.46D-03
 Coeff-Com:  0.344D-02-0.258D-01-0.157D+00 0.118D+01
 Coeff-En:   0.000D+00 0.000D+00 0.000D+00 0.100D+01
 Coeff:      0.343D-02-0.257D-01-0.157D+00 0.118D+01
 Gap=     0.310 Goal=   None    Shift=    0.000
 Gap=     0.335 Goal=   None    Shift=    0.000
 RMSDP=1.44D-04 MaxDP=1.19D-03 DE=-9.20D-05 OVMax= 1.45D-03

 Cycle   5  Pass 0  IDiag  1:
 E= -41.0049582952706     Delta-E=       -0.000007919718 Rises=F Damp=F
 DIIS: error= 1.64D-04 at cycle   5 NSaved=   5.
 NSaved= 5 IEnMin= 5 EnMin= -41.0049582952706     IErMin= 5 ErrMin= 1.64D-04
 ErrMax= 1.64D-04  0.00D+00 EMaxC= 1.00D-01 BMatC= 9.86D-07 BMatP= 1.06D-05
 IDIUse=3 WtCom= 9.98D-01 WtEn= 1.64D-03
 Coeff-Com:  0.953D-03-0.246D-02-0.594D-01-0.806D-02 0.107D+01
 Coeff-En:   0.000D+00 0.000D+00 0.000D+00 0.000D+00 0.100D+01
 Coeff:      0.952D-03-0.246D-02-0.593D-01-0.804D-02 0.107D+01
 Gap=     0.310 Goal=   None    Shift=    0.000
 Gap=     0.336 Goal=   None    Shift=    0.000
 RMSDP=4.17D-05 MaxDP=3.12D-04 DE=-7.92D-06 OVMax= 5.82D-04

 Cycle   6  Pass 0  IDiag  1:
 E= -41.0049589388919     Delta-E=       -0.000000643621 Rises=F Damp=F
 DIIS: error= 7.04D-05 at cycle   6 NSaved=   6.
 NSaved= 6 IEnMin= 6 EnMin= -41.0049589388919     IErMin= 6 ErrMin= 7.04D-05
 ErrMax= 7.04D-05  0.00D+00 EMaxC= 1.00D-01 BMatC= 9.20D-08 BMatP= 9.86D-07
 IDIUse=1 WtCom= 1.00D+00 WtEn= 0.00D+00
 Coeff-Com: -0.770D-05 0.157D-02 0.743D-03-0.974D-01 0.214D+00 0.881D+00
 Coeff:     -0.770D-05 0.157D-02 0.743D-03-0.974D-01 0.214D+00 0.881D+00
 Gap=     0.310 Goal=   None    Shift=    0.000
 Gap=     0.336 Goal=   None    Shift=    0.000
 RMSDP=1.09D-05 MaxDP=1.14D-04 DE=-6.44D-07 OVMax= 2.12D-04

 Cycle   7  Pass 0  IDiag  1:
 E= -41.0049589922702     Delta-E=       -0.000000053378 Rises=F Damp=F
 DIIS: error= 1.15D-05 at cycle   7 NSaved=   7.
 NSaved= 7 IEnMin= 7 EnMin= -41.0049589922702     IErMin= 7 ErrMin= 1.15D-05
 ErrMax= 1.15D-05  0.00D+00 EMaxC= 1.00D-01 BMatC= 3.09D-09 BMatP= 9.20D-08
 IDIUse=1 WtCom= 1.00D+00 WtEn= 0.00D+00
 Coeff-Com:  0.635D-06 0.120D-03 0.312D-02-0.445D-02-0.408D-01 0.421D-01
 Coeff-Com:  0.100D+01
 Coeff:      0.635D-06 0.120D-03 0.312D-02-0.445D-02-0.408D-01 0.421D-01
 Coeff:      0.100D+01
 Gap=     0.310 Goal=   None    Shift=    0.000
 Gap=     0.336 Goal=   None    Shift=    0.000
 RMSDP=2.31D-06 MaxDP=2.56D-05 DE=-5.34D-08 OVMax= 3.79D-05

 Initial convergence to 1.0D-05 achieved.  Increase integral accuracy.
 Cycle   8  Pass 1  IDiag  1:
 E= -41.0049578813884     Delta-E=        0.000001110882 Rises=F Damp=F
 DIIS: error= 3.31D-06 at cycle   1 NSaved=   1.
 NSaved= 1 IEnMin= 1 EnMin= -41.0049578813884     IErMin= 1 ErrMin= 3.31D-06
 ErrMax= 3.31D-06  0.00D+00 EMaxC= 1.00D-01 BMatC= 3.82D-10 BMatP= 3.82D-10
 IDIUse=1 WtCom= 1.00D+00 WtEn= 0.00D+00
 Coeff-Com:  0.100D+01
 Coeff:      0.100D+01
 Gap=     0.310 Goal=   None    Shift=    0.000
 Gap=     0.336 Goal=   None    Shift=    0.000
 RMSDP=2.31D-06 MaxDP=2.56D-05 DE= 1.11D-06 OVMax= 1.25D-05

 Cycle   9  Pass 1  IDiag  1:
 E= -41.0049578816814     Delta-E=       -0.000000000293 Rises=F Damp=F
 DIIS: error= 1.79D-06 at cycle   2 NSaved=   2.
 NSaved= 2 IEnMin= 2 EnMin= -41.0049578816814     IErMin= 2 ErrMin= 1.79D-06
 ErrMax= 1.79D-06  0.00D+00 EMaxC= 1.00D-01 BMatC= 6.99D-11 BMatP= 3.82D-10
 IDIUse=1 WtCom= 1.00D+00 WtEn= 0.00D+00
 Coeff-Com: -0.115D+00 0.112D+01
 Coeff:     -0.115D+00 0.112D+01
 Gap=     0.310 Goal=   None    Shift=    0.000
 Gap=     0.336 Goal=   None    Shift=    0.000
 RMSDP=3.77D-07 MaxDP=4.22D-06 DE=-2.93D-10 OVMax= 6.98D-06

 Cycle  10  Pass 1  IDiag  1:
 E= -41.0049578817530     Delta-E=       -0.000000000072 Rises=F Damp=F
 DIIS: error= 8.85D-07 at cycle   3 NSaved=   3.
 NSaved= 3 IEnMin= 3 EnMin= -41.0049578817530     IErMin= 3 ErrMin= 8.85D-07
 ErrMax= 8.85D-07  0.00D+00 EMaxC= 1.00D-01 BMatC= 1.92D-11 BMatP= 6.99D-11
 IDIUse=1 WtCom= 1.00D+00 WtEn= 0.00D+00
 Coeff-Com: -0.203D+00 0.874D-01 0.112D+01
 Coeff:     -0.203D+00 0.874D-01 0.112D+01
 Gap=     0.310 Goal=   None    Shift=    0.000
 Gap=     0.336 Goal=   None    Shift=    0.000
 RMSDP=2.39D-07 MaxDP=2.55D-06 DE=-7.17D-11 OVMax= 4.89D-06

 Cycle  11  Pass 1  IDiag  1:
 E= -41.0049578817719     Delta-E=       -0.000000000019 Rises=F Damp=F
 DIIS: error= 2.45D-07 at cycle   4 NSaved=   4.
 NSaved= 4 IEnMin= 4 EnMin= -41.0049578817719     IErMin= 4 ErrMin= 2.45D-07
 ErrMax= 2.45D-07  0.00D+00 EMaxC= 1.00D-01 BMatC= 4.13D-12 BMatP= 1.92D-11
 IDIUse=1 WtCom= 1.00D+00 WtEn= 0.00D+00
 Coeff-Com: -0.573D-01-0.134D+00 0.441D+00 0.750D+00
 Coeff:     -0.573D-01-0.134D+00 0.441D+00 0.750D+00
 Gap=     0.310 Goal=   None    Shift=    0.000
 Gap=     0.336 Goal=   None    Shift=    0.000
 RMSDP=7.15D-08 MaxDP=7.79D-07 DE=-1.89D-11 OVMax= 1.21D-06

 Cycle  12  Pass 1  IDiag  1:
 E= -41.0049578817738     Delta-E=       -0.000000000002 Rises=F Damp=F
 DIIS: error= 5.00D-08 at cycle   5 NSaved=   5.
 NSaved= 5 IEnMin= 5 EnMin= -41.0049578817738     IErMin= 5 ErrMin= 5.00D-08
 ErrMax= 5.00D-08  0.00D+00 EMaxC= 1.00D-01 BMatC= 2.34D-13 BMatP= 4.13D-12
 IDIUse=1 WtCom= 1.00D+00 WtEn= 0.00D+00
 Coeff-Com:  0.103D-01-0.556D-01-0.110D-01 0.213D+00 0.843D+00
 Coeff:      0.103D-01-0.556D-01-0.110D-01 0.213D+00 0.843D+00
 Gap=     0.310 Goal=   None    Shift=    0.000
 Gap=     0.336 Goal=   None    Shift=    0.000
 RMSDP=1.69D-08 MaxDP=1.59D-07 DE=-1.93D-12 OVMax= 3.01D-07

 Cycle  13  Pass 1  IDiag  1:
 E= -41.0049578817739     Delta-E=       -0.000000000000 Rises=F Damp=F
 DIIS: error= 8.04D-09 at cycle   6 NSaved=   6.
 NSaved= 6 IEnMin= 6 EnMin= -41.0049578817739     IErMin= 6 ErrMin= 8.04D-09
 ErrMax= 8.04D-09  0.00D+00 EMaxC= 1.00D-01 BMatC= 1.52D-15 BMatP= 2.34D-13
 IDIUse=1 WtCom= 1.00D+00 WtEn= 0.00D+00
 Coeff-Com:  0.205D-02-0.695D-02-0.624D-02 0.233D-01 0.136D+00 0.852D+00
 Coeff:      0.205D-02-0.695D-02-0.624D-02 0.233D-01 0.136D+00 0.852D+00
 Gap=     0.310 Goal=   None    Shift=    0.000
 Gap=     0.336 Goal=   None    Shift=    0.000
 RMSDP=1.32D-09 MaxDP=1.54D-08 DE=-9.95D-14 OVMax= 2.94D-08

 SCF Done:  E(UB3LYP) =  -41.0049578818     A.U. after   13 cycles
            NFock= 13  Conv=0.13D-08     -V/T= 2.0131
 <Sx>= 0.0000 <Sy>= 0.0000 <Sz>= 0.5000 <S**2>= 0.7538 S= 0.5019
 <L.S>= 0.000000000000E+00
 KE= 4.047404387036D+01 PE=-1.207035995949D+02 EE= 2.582290190557D+01
 Annihilation of the first spin contaminant:
 S**2 before annihilation     0.7538,   after     0.7500
 Leave Link  502 at Fri Aug 23 16:09:29 2019, MaxMem=  2684354560 cpu:         7.1
 (Enter /soft/gaussian/09-e.01/g09/l508.exe)
 QCSCF skips out because SCF is already converged.
 Leave Link  508 at Fri Aug 23 16:09:29 2019, MaxMem=  2684354560 cpu:         0.0
 (Enter /soft/gaussian/09-e.01/g09/l801.exe)
 DoSCS=F DFT=T ScalE2(SS,OS)=  1.000000  1.000000
 Range of M.O.s used for correlation:     1    25
 NBasis=    25 NAE=     6 NBE=     5 NFC=     0 NFV=     0
 NROrb=     25 NOA=     6 NOB=     5 NVA=    19 NVB=    20
 Leave Link  801 at Fri Aug 23 16:09:29 2019, MaxMem=  2684354560 cpu:         0.2
 (Enter /soft/gaussian/09-e.01/g09/l1101.exe)
 Using compressed storage, NAtomX=     6.
 Will process      7 centers per pass.
 Leave Link 1101 at Fri Aug 23 16:09:29 2019, MaxMem=  2684354560 cpu:         1.5
 (Enter /soft/gaussian/09-e.01/g09/l1102.exe)
 Symmetrizing basis deriv contribution to polar:
 IMax=3 JMax=2 DiffMx= 0.00D+00
 Leave Link 1102 at Fri Aug 23 16:09:29 2019, MaxMem=  2684354560 cpu:         0.2
 (Enter /soft/gaussian/09-e.01/g09/l1110.exe)
 Forming Gx(P) for the SCF density, NAtomX=     6.
 Integral derivatives from FoFJK, PRISM(SPDF).
 Do as many integral derivatives as possible in FoFJK.
 G2DrvN: MDV=    2684354408.
 G2DrvN: will do     7 centers at a time, making    1 passes.
 Calling FoFCou, ICntrl=  3107 FMM=F I1Cent=   0 AccDes= 0.00D+00.
 FoFJK:  IHMeth= 1 ICntrl=    3107 DoSepK=F KAlg= 0 I1Cent=   0 FoldK=F
 IRaf=         0 NMat=   1 IRICut=       1 DoRegI=T DoRafI=F ISym2E= 0.
 FoFCou: FMM=F IPFlag=           0 FMFlag=      100000 FMFlg1=           0
         NFxFlg=           0 DoJE=F BraDBF=F KetDBF=F FulRan=T
         wScrn=  0.000000 ICntrl=    3107 IOpCl=  1 I1Cent=           0 NGrid=           0
         NMat0=    1 NMatS0=      1 NMatT0=    0 NMatD0=    1 NMtDS0=    0 NMtDT0=    0
 Symmetry not used in FoFCou.
 End of G2Drv F.D. properties file   721 does not exist.
 End of G2Drv F.D. properties file   722 does not exist.
 End of G2Drv F.D. properties file   788 does not exist.
 Leave Link 1110 at Fri Aug 23 16:09:30 2019, MaxMem=  2684354560 cpu:         8.5
 (Enter /soft/gaussian/09-e.01/g09/l1002.exe)
 Minotr:  UHF open shell wavefunction.
          IDoAtm=111111
          Direct CPHF calculation.
          Differentiating once with respect to nuclear coordinates.
          Requested convergence is 1.0D-08 RMS, and 1.0D-07 maximum.
          Secondary convergence is 1.0D-12 RMS, and 1.0D-12 maximum.
          NewPWx=T KeepS1=F KeepF1=F KeepIn=T MapXYZ=F SortEE=F KeepMc=T.
          MDV=    2684354446 using IRadAn=       1.
 Generate precomputed XC quadrature information.
 Keep R1 and R2 ints in memory in canonical form, NReq=967166.
 FoFCou: FMM=F IPFlag=           0 FMFlag=           0 FMFlg1=           0
         NFxFlg=           0 DoJE=F BraDBF=F KetDBF=F FulRan=T
         wScrn=  0.000000 ICntrl=     600 IOpCl=  0 I1Cent=           0 NGrid=           0
         NMat0=    1 NMatS0=    325 NMatT0=    0 NMatD0=    1 NMtDS0=    0 NMtDT0=    0
 Symmetry not used in FoFCou.
          Solving linear equations simultaneously, MaxMat=       0.
          There are    21 degrees of freedom in the 1st order CPHF.  IDoFFX=6 NUNeed=     0.
     15 vectors produced by pass  0 Test12= 1.02D-15 4.76D-09 XBig12= 9.28D-02 1.40D-01.
 AX will form    15 AO Fock derivatives at one time.
     15 vectors produced by pass  1 Test12= 1.02D-15 4.76D-09 XBig12= 4.09D-03 4.43D-02.
     15 vectors produced by pass  2 Test12= 1.02D-15 4.76D-09 XBig12= 2.68D-04 8.00D-03.
     15 vectors produced by pass  3 Test12= 1.02D-15 4.76D-09 XBig12= 3.40D-06 6.95D-04.
     13 vectors produced by pass  4 Test12= 1.02D-15 4.76D-09 XBig12= 3.17D-09 1.68D-05.
     10 vectors produced by pass  5 Test12= 1.02D-15 4.76D-09 XBig12= 3.01D-12 4.38D-07.
      1 vectors produced by pass  6 Test12= 1.02D-15 4.76D-09 XBig12= 3.49D-15 1.47D-08.
 InvSVY:  IOpt=1 It=  1 EMax= 1.22D-15
 Solved reduced A of dimension    84 with    15 vectors.
 End of Minotr F.D. properties file   721 does not exist.
 End of Minotr F.D. properties file   722 does not exist.
 End of Minotr F.D. properties file   788 does not exist.
 Leave Link 1002 at Fri Aug 23 16:09:31 2019, MaxMem=  2684354560 cpu:         4.8
 (Enter /soft/gaussian/09-e.01/g09/l601.exe)
 Copying SCF densities to generalized density rwf, IOpCl= 1 IROHF=0.

 **********************************************************************

            Population analysis using the SCF density.

 **********************************************************************

 Orbital symmetries:
 Alpha Orbitals:
       Occupied  (A) (A) (A) (A) (A) (A)
       Virtual   (A) (A) (A) (A) (A) (A) (A) (A) (A) (A) (A) (A)
                 (A) (A) (A) (A) (A) (A) (A)
 Beta  Orbitals:
       Occupied  (A) (A) (A) (A) (A)
       Virtual   (A) (A) (A) (A) (A) (A) (A) (A) (A) (A) (A) (A)
                 (A) (A) (A) (A) (A) (A) (A) (A)
 The electronic state is 2-A.
 Alpha  occ. eigenvalues --  -10.19786  -0.68694  -0.42149  -0.42147  -0.40086
 Alpha  occ. eigenvalues --   -0.22876
 Alpha virt. eigenvalues --    0.08083   0.11328   0.17836   0.17837   0.53982
 Alpha virt. eigenvalues --    0.53984   0.55143   0.62362   0.78583   0.90951
 Alpha virt. eigenvalues --    0.90953   0.96141   1.12175   1.64429   1.64431
 Alpha virt. eigenvalues --    2.00512   2.18168   2.18179   4.09130
  Beta  occ. eigenvalues --  -10.18399  -0.64706  -0.41204  -0.41201  -0.39738
  Beta virt. eigenvalues --   -0.06170   0.09311   0.12951   0.18385   0.18386
  Beta virt. eigenvalues --    0.54798   0.54801   0.60569   0.64939   0.80438
  Beta virt. eigenvalues --    0.91437   0.91439   0.98686   1.12774   1.71413
  Beta virt. eigenvalues --    1.71414   2.08986   2.19290   2.19301   4.12804
          Condensed to atoms (all electrons):
               1          2          3          4          5          6
     1  C    5.337442   0.380001   0.380006   0.380008   0.015220  -0.006075
     2  H    0.380001   0.510265  -0.029404  -0.029398   0.000029   0.000036
     3  H    0.380006  -0.029404   0.510269  -0.029385   0.000026   0.000038
     4  H    0.380008  -0.029398  -0.029385   0.510308   0.000023   0.000041
     5  H    0.015220   0.000029   0.000026   0.000023   0.612621   0.367453
     6  H   -0.006075   0.000036   0.000038   0.000041   0.367453   0.661857
          Atomic-Atomic Spin Densities.
               1          2          3          4          5          6
     1  C    1.144624  -0.009039  -0.009034  -0.009028   0.012865  -0.006612
     2  H   -0.009039  -0.043060   0.000967   0.000966  -0.000069   0.000022
     3  H   -0.009034   0.000967  -0.043068   0.000965  -0.000069   0.000022
     4  H   -0.009028   0.000966   0.000965  -0.043080  -0.000068   0.000021
     5  H    0.012865  -0.000069  -0.000069  -0.000068  -0.016188  -0.009476
     6  H   -0.006612   0.000022   0.000022   0.000021  -0.009476   0.055904
 Mulliken charges and spin densities:
               1          2
     1  C   -0.486602   1.123777
     2  H    0.168471  -0.050213
     3  H    0.168450  -0.050217
     4  H    0.168404  -0.050224
     5  H    0.004628  -0.013004
     6  H   -0.023351   0.039882
 Sum of Mulliken charges =   0.00000   1.00000
 Mulliken charges and spin densities with hydrogens summed into heavy atoms:
               1          2
     1  C    0.000000   1.000000
 APT charges:
               1
     1  C   -1.061620
     2  H    0.357860
     3  H    0.358520
     4  H    0.359533
     5  H   -0.572369
     6  H    0.558077
 Sum of APT charges =   0.00000
 APT charges with hydrogens summed into heavy atoms:
               1
     1  C    0.000000
 Electronic spatial extent (au):  <R**2>=             88.8586
 Charge=              0.0000 electrons
 Dipole moment (field-independent basis, Debye):
    X=              0.3797    Y=              0.0005    Z=              0.0013  Tot=              0.3797
 Quadrupole moment (field-independent basis, Debye-Ang):
   XX=            -10.8733   YY=             -9.1704   ZZ=             -9.1709
   XY=             -0.0087   XZ=             -0.0205   YZ=             -0.0000
 Traceless Quadrupole moment (field-independent basis, Debye-Ang):
   XX=             -1.1351   YY=              0.5678   ZZ=              0.5673
   XY=             -0.0087   XZ=             -0.0205   YZ=             -0.0000
 Octapole moment (field-independent basis, Debye-Ang**2):
  XXX=              0.9297  YYY=              0.5648  ZZZ=              0.6093  XYY=              1.7597
  XXY=             -0.0058  XXZ=             -0.0145  XZZ=              1.7508  YZZ=             -0.5592
  YYZ=             -0.5962  XYZ=              0.0096
 Hexadecapole moment (field-independent basis, Debye-Ang**3):
 XXXX=            -96.7329 YYYY=            -15.9531 ZZZZ=            -15.9509 XXXY=             -0.0261
 XXXZ=             -0.0565 YYYX=              0.3064 YYYZ=             -0.0003 ZZZX=              0.3015
 ZZZY=             -0.0019 XXYY=            -20.7378 XXZZ=            -20.7477 YYZZ=             -5.3201
 XXYZ=              0.0113 YYXZ=             -0.3651 ZZXY=             -0.3332
 N-N= 1.340169593718D+01 E-N=-1.207035995863D+02  KE= 4.047404387036D+01
  Exact polarizability:   0.000   0.000   0.000   0.000   0.000   0.000
 Approx polarizability:  23.425  -0.046  13.755  -0.105  -0.000  13.753
                          Isotropic Fermi Contact Couplings
        Atom                 a.u.       MegaHertz       Gauss      10(-4) cm-1
     1  C(13)              0.10816     121.59363      43.38763      40.55927
     2  H(1)              -0.01546     -69.11166     -24.66076     -23.05317
     3  H(1)              -0.01546     -69.11472     -24.66185     -23.05419
     4  H(1)              -0.01546     -69.11568     -24.66219     -23.05451
     5  H(1)              -0.00444     -19.82695      -7.07475      -6.61356
     6  H(1)               0.01277      57.10220      20.37548      19.04724
 --------------------------------------------------------
       Center         ----  Spin Dipole Couplings  ----
                      3XX-RR        3YY-RR        3ZZ-RR
 --------------------------------------------------------
     1   Atom        1.074810     -0.537500     -0.537310
     2   Atom       -0.005555     -0.062410      0.067965
     3   Atom       -0.005526      0.066282     -0.060756
     4   Atom       -0.005437      0.004401      0.001035
     5   Atom        0.033287     -0.016643     -0.016644
     6   Atom        0.006205     -0.003102     -0.003103
 --------------------------------------------------------
                        XY            XZ            YZ
 --------------------------------------------------------
     1   Atom        0.008017      0.019010      0.000093
     2   Atom        0.000002      0.002053     -0.035694
     3   Atom        0.002826      0.000079     -0.038538
     4   Atom       -0.002955     -0.002431      0.074237
     5   Atom       -0.000011     -0.000025      0.000002
     6   Atom        0.000001      0.000001      0.000000
 --------------------------------------------------------


 ---------------------------------------------------------------------------------
              Anisotropic Spin Dipole Couplings in Principal Axis System
 ---------------------------------------------------------------------------------

       Atom             a.u.   MegaHertz   Gauss  10(-4) cm-1        Axes

              Baa    -0.5375   -72.133   -25.739   -24.061 -0.0077  0.9697  0.2443
     1 C(13)  Bbb    -0.5375   -72.132   -25.738   -24.061 -0.0102 -0.2444  0.9696
              Bcc     1.0751   144.265    51.477    48.122  0.9999  0.0050  0.0118
 
              Baa    -0.0715   -38.174   -13.621   -12.733 -0.0077  0.9687  0.2480
     2 H(1)   Bbb    -0.0056    -2.987    -1.066    -0.996  0.9997  0.0135 -0.0214
              Bcc     0.0771    41.161    14.687    13.730  0.0240 -0.2477  0.9685
 
              Baa    -0.0715   -38.172   -13.621   -12.733 -0.0127  0.2695  0.9629
     3 H(1)   Bbb    -0.0056    -2.990    -1.067    -0.997  0.9994 -0.0280  0.0210
              Bcc     0.0771    41.162    14.688    13.730  0.0327  0.9626 -0.2690
 
              Baa    -0.0715   -38.170   -13.620   -12.732 -0.0050 -0.6991  0.7150
     4 H(1)   Bbb    -0.0056    -2.994    -1.068    -0.999  0.9989  0.0295  0.0358
              Bcc     0.0772    41.164    14.688    13.731 -0.0461  0.7144  0.6982
 
              Baa    -0.0166    -8.881    -3.169    -2.962  0.0003 -0.5498  0.8353
     5 H(1)   Bbb    -0.0166    -8.879    -3.168    -2.962  0.0005  0.8353  0.5498
              Bcc     0.0333    17.760     6.337     5.924  1.0000 -0.0002 -0.0005
 
              Baa    -0.0031    -1.656    -0.591    -0.552 -0.0000 -0.5504  0.8349
     6 H(1)   Bbb    -0.0031    -1.655    -0.591    -0.552 -0.0001  0.8349  0.5504
              Bcc     0.0062     3.311     1.181     1.104  1.0000  0.0001  0.0001
 

 ---------------------------------------------------------------------------------

 No NMR shielding tensors so no spin-rotation constants.
 Leave Link  601 at Fri Aug 23 16:09:31 2019, MaxMem=  2684354560 cpu:         3.0
 (Enter /soft/gaussian/09-e.01/g09/l701.exe)
 Compute integral second derivatives.
 ... and contract with generalized density number  0.
 Leave Link  701 at Fri Aug 23 16:09:31 2019, MaxMem=  2684354560 cpu:         1.9
 (Enter /soft/gaussian/09-e.01/g09/l702.exe)
 L702 exits ... SP integral derivatives will be done elsewhere.
 Leave Link  702 at Fri Aug 23 16:09:31 2019, MaxMem=  2684354560 cpu:         0.1
 (Enter /soft/gaussian/09-e.01/g09/l703.exe)
 Compute integral second derivatives, UseDBF=F ICtDFT=           0.
 Integral derivatives from FoFJK, PRISM(SPDF).
 Calling FoFJK, ICntrl=    100147 FMM=F ISym2X=0 I1Cent= 0 IOpClX= 1 NMat=1 NMatS=1 NMatT=0.
 FoFJK:  IHMeth= 1 ICntrl=  100147 DoSepK=F KAlg= 0 I1Cent=   0 FoldK=F
 IRaf=         0 NMat=   1 IRICut=       1 DoRegI=T DoRafI=F ISym2E= 0.
 FoFCou: FMM=F IPFlag=           0 FMFlag=      100000 FMFlg1=         800
         NFxFlg=           0 DoJE=F BraDBF=F KetDBF=F FulRan=T
         wScrn=  0.000000 ICntrl=  100147 IOpCl=  1 I1Cent=           0 NGrid=           0
         NMat0=    1 NMatS0=      1 NMatT0=    0 NMatD0=    1 NMtDS0=    0 NMtDT0=    0
 Symmetry not used in FoFCou.
 Leave Link  703 at Fri Aug 23 16:09:32 2019, MaxMem=  2684354560 cpu:         9.6
 (Enter /soft/gaussian/09-e.01/g09/l716.exe)
 Dipole        = 1.49380020D-01 2.15866197D-04 5.30700239D-04
 Polarizability= 0.00000000D+00 0.00000000D+00 0.00000000D+00
                 0.00000000D+00 0.00000000D+00 0.00000000D+00
 ***** Axes restored to original set *****
 -------------------------------------------------------------------
 Center     Atomic                   Forces (Hartrees/Bohr)
 Number     Number              X              Y              Z
 -------------------------------------------------------------------
      1        6           0.000007739   -0.000021688    0.000021939
      2        1          -0.000000106   -0.000004089    0.000025589
      3        1           0.000015549    0.000005717   -0.000019848
      4        1          -0.000018505    0.000019823   -0.000020982
      5        1          -0.002543209    0.062361807   -0.001066011
      6        1           0.002538533   -0.062361570    0.001059312
 -------------------------------------------------------------------
 Cartesian Forces:  Max     0.062361807 RMS     0.020807497
 -----------------------------------------------------------------------------------------------
                       Internal Coordinate Forces (Hartree/Bohr or radian)
  Cent   Atom   N1       Length/X         N2         Alpha/Y        N3         Beta/Z          J
 -----------------------------------------------------------------------------------------------
      1  C 
      2  H        1   0.000026(     1)
      3  H        1   0.000023(     2)      2   0.000019(     7)
      4  H        1   0.000025(     3)      2   0.000020(     8)      3   0.000038(    12)     0
      5  H        1   0.000001(     4)      2   0.000038(     9)      3  -0.000028(    13)     0
         X        5   0.000000(     5)      1  -0.000006(    10)      2  -0.000000(    14)     0
      6  H        5  -0.062422(     6)      6  -0.000006(    11)      1   0.000005(    15)     0
 -----------------------------------------------------------------------------------------------
 Internal  Forces:  Max     0.062422205 RMS     0.016117357
 Force constants in Cartesian coordinates: 
                1             2             3             4             5 
      1  0.625440D+00
      2  0.301320D-01  0.249844D-01
      3 -0.864678D-03  0.174185D-01  0.626361D+00
      4 -0.565155D-01 -0.246508D-02 -0.771783D-04  0.467995D-01
      5 -0.245907D-02 -0.747797D-02  0.151429D-02  0.218741D-02  0.328083D-02
      6  0.746450D-04 -0.149761D-02 -0.361368D+00 -0.458699D-04  0.928611D-03
      7 -0.285565D+00 -0.253078D-02  0.131852D+00  0.489203D-02  0.154954D-04
      8  0.873863D-04 -0.748298D-02 -0.288412D-02 -0.169472D-03  0.228811D-02
      9  0.131695D+00 -0.138909D-02 -0.132323D+00  0.243317D-01 -0.202764D-03
     10 -0.283021D+00 -0.251263D-01 -0.130909D+00  0.485211D-02  0.239633D-03
     11 -0.277462D-01 -0.100330D-01 -0.160436D-01  0.425484D-03  0.233095D-02
     12 -0.130905D+00 -0.145326D-01 -0.132332D+00 -0.241903D-01 -0.262985D-02
     13 -0.704017D-03 -0.227113D-03  0.000000D+00  0.582213D-05  0.317134D-04
     14 -0.246771D-03  0.492761D-02 -0.115447D-03  0.401801D-04 -0.758067D-03
     15  0.000000D+00 -0.899437D-04 -0.701042D-03 -0.252485D-04  0.550827D-03
     16  0.364988D-03  0.217246D-03 -0.102318D-05 -0.339350D-04 -0.151866D-04
     17  0.232624D-03 -0.491808D-02  0.110385D-03 -0.185219D-04  0.336141D-03
     18  0.000000D+00  0.907322D-04  0.363333D-03  0.691327D-05 -0.161120D-03
                6             7             8             9            10 
      6  0.375659D+00
      7 -0.344494D-02  0.293837D+00
      8  0.114256D-03  0.189645D-02  0.327134D-02
      9 -0.712482D-02 -0.142176D+00  0.143329D-02  0.128620D+00
     10  0.341598D-02 -0.131185D-01 -0.215882D-02 -0.138432D-01  0.291303D+00
     11  0.457709D-03  0.608702D-03  0.232713D-02  0.139021D-03  0.270206D-01
     12 -0.712506D-02  0.137593D-01  0.151907D-02  0.108533D-01  0.141328D+00
     13  0.158904D-05 -0.157702D-03  0.494598D-03  0.686854D-04 -0.114006D-03
     14 -0.307936D-04 -0.779694D-05 -0.727962D-03  0.504524D-04  0.680398D-04
     15 -0.200065D-03  0.945086D-04 -0.254387D-03 -0.369669D-04 -0.665003D-04
     16 -0.139983D-05  0.111488D-03 -0.150148D-03 -0.766093D-04  0.985822D-04
     17  0.278316D-04  0.179251D-04  0.324372D-03 -0.309081D-04 -0.431032D-04
     18  0.158630D-03 -0.845745D-04  0.718822D-04  0.121900D-04  0.749948D-04
               11            12            13            14            15 
     11  0.578301D-02
     12  0.156276D-01  0.128629D+00
     13 -0.445173D-03 -0.682899D-04  0.404042D-01
     14 -0.724963D-03  0.406711D-04 -0.402640D-02  0.139015D+00
     15 -0.261928D-03 -0.379133D-04  0.685629D-04 -0.168683D-02  0.402695D-01
     16  0.136639D-03  0.759002D-04 -0.394343D-01  0.417275D-02 -0.711053D-04
     17  0.316887D-03 -0.248416D-04  0.417237D-02 -0.141731D+00  0.174226D-02
     18  0.812880D-04  0.124194D-04 -0.710899D-04  0.174195D-02 -0.392935D-01
               16            17            18 
     16  0.388932D-01
     17 -0.436130D-02  0.145672D+00
     18  0.742374D-04 -0.182473D-02  0.387469D-01
 Force constants in internal coordinates: 
                1             2             3             4             5 
      1  0.375659D+00
      2  0.566869D-03  0.375662D+00
      3  0.567531D-03  0.564888D-03  0.375660D+00
      4 -0.211960D-05  0.000000D+00  0.392132D-05  0.122704D-02
      5  0.000000D+00  0.000000D+00  0.000000D+00  0.000000D+00  0.000000D+00
      6  0.251611D-04  0.267810D-04  0.289097D-04  0.395011D-02  0.000000D+00
      7  0.161519D-01  0.975427D-04 -0.160432D-01 -0.483086D-04  0.000000D+00
      8  0.161520D-01 -0.160433D-01  0.100482D-03 -0.423884D-04  0.000000D+00
      9 -0.643144D-04  0.300522D-04  0.268212D-04  0.541660D-04  0.000000D+00
     10  0.265417D-03 -0.131722D-03 -0.129177D-03 -0.734985D-05  0.000000D+00
     11  0.265418D-03 -0.131725D-03 -0.129175D-03 -0.734981D-05  0.000000D+00
     12  0.202416D-03  0.160046D-02  0.164187D-02 -0.693530D-03  0.000000D+00
     13  0.000000D+00  0.518335D-04 -0.463744D-04 -0.393686D-04  0.000000D+00
     14  0.000000D+00  0.116154D-05  0.000000D+00  0.000000D+00  0.000000D+00
     15  0.000000D+00 -0.226879D-03  0.223065D-03  0.658862D-05  0.000000D+00
                6             7             8             9            10 
      6  0.145881D+00
      7  0.344920D-04  0.195977D+00
      8  0.323467D-04  0.974732D-01  0.195973D+00
      9 -0.362309D-04 -0.268030D-03 -0.272599D-03  0.483379D-02
     10  0.000000D+00  0.108903D-03  0.105053D-03  0.807646D-03  0.362511D-02
     11  0.000000D+00  0.108903D-03  0.105054D-03  0.807650D-03  0.362512D-02
     12  0.554980D-03 -0.825390D-02 -0.791704D-02  0.138866D-02  0.232941D-03
     13  0.271441D-04  0.326188D-03 -0.334963D-03  0.229452D-04 -0.335077D-05
     14  0.000000D+00  0.000000D+00  0.000000D+00 -0.234727D-05 -0.523954D-05
     15  0.000000D+00 -0.393588D-04  0.321074D-04 -0.321640D-05  0.000000D+00
               11            12            13            14            15 
     11  0.362512D-02
     12  0.232938D-03  0.102866D-01
     13 -0.334262D-05 -0.236490D-02  0.476595D-02
     14 -0.523963D-05  0.000000D+00 -0.278577D-05  0.000000D+00
     15  0.000000D+00 -0.411383D-03  0.816372D-03 -0.689862D-05  0.362384D-02
 Leave Link  716 at Fri Aug 23 16:09:32 2019, MaxMem=  2684354560 cpu:         0.2
 (Enter /soft/gaussian/09-e.01/g09/l103.exe)

 GradGradGradGradGradGradGradGradGradGradGradGradGradGradGradGradGradGrad
 Berny optimization.
 Search for a saddle point.
 Step number   1 out of a maximum of   25
 All quantities printed in internal units (Hartrees-Bohrs-Radians)
 Swapping is turned off.
 Second derivative matrix not updated -- analytic derivatives used.
 The second derivative matrix:
                          R1        R2        A2        R3        A3
           R1           0.37566
           R2           0.00057   0.37566
           A2           0.01615   0.00010   0.19598
           R3           0.00057   0.00056  -0.01604   0.37566
           A3           0.01615  -0.01604   0.09747   0.00010   0.19597
           D3           0.00020   0.00160  -0.00825   0.00164  -0.00792
           R4          -0.00000   0.00000  -0.00005   0.00000  -0.00004
           A4          -0.00006   0.00003  -0.00027   0.00003  -0.00027
           D4          -0.00000   0.00005   0.00033  -0.00005  -0.00033
           D6           0.00000  -0.00023  -0.00004   0.00022   0.00003
           A6           0.00027  -0.00013   0.00011  -0.00013   0.00011
           R6           0.00003   0.00003   0.00003   0.00003   0.00003
           R5          -0.00000   0.00000   0.00000   0.00000   0.00000
           A5           0.00027  -0.00013   0.00011  -0.00013   0.00011
           D5          -0.00000   0.00000  -0.00000  -0.00000  -0.00000
                          D3        R4        A4        D4        D6
           D3           0.01029
           R4          -0.00069   0.00123
           A4           0.00139   0.00005   0.00483
           D4          -0.00236  -0.00004   0.00002   0.00477
           D6          -0.00041   0.00001  -0.00000   0.00082   0.00362
           A6           0.00023  -0.00001   0.00081  -0.00000   0.00000
           R6           0.00055   0.00395  -0.00004   0.00003   0.00000
           R5          -0.00000   0.00000   0.00000  -0.00000   0.00000
           A5           0.00023  -0.00001   0.00081  -0.00000   0.00000
           D5           0.00000  -0.00000  -0.00000  -0.00000  -0.00001
                          A6        R6        R5        A5        D5
           A6           0.00363
           R6          -0.00000   0.14588
           R5          -0.00000   0.00000  -0.00000
           A5           0.00363  -0.00000  -0.00000   0.00363
           D5          -0.00001   0.00000   0.00000  -0.00001   0.00000
 ITU=  0
     Eigenvalues ---    0.00103   0.00302   0.00322   0.00414   0.00524
     Eigenvalues ---    0.01112   0.09757   0.14599   0.28526   0.37604
     Eigenvalues ---    0.37680   0.383741000.000001000.000001000.00000
 Eigenvectors required to have negative eigenvalues:
                          R4        D3        D4        A4        R6
   1                    0.98822   0.11046   0.08346  -0.05700  -0.02740
                          D6        A6        A3        A2        R2
   1                   -0.01134   0.01048   0.00322   0.00309  -0.00034
 Eigenvalue     1 is   1.03D-03 should be less than     0.000000 Eigenvector:
                          R4        D3        D4        A4        R6
   1                    0.98822   0.11046   0.08346  -0.05700  -0.02740
                          D6        A6        A3        A2        R2
   1                   -0.01134   0.01048   0.00322   0.00309  -0.00034
 RFO step:  Lambda0=2.303713418D-03 Lambda=-2.30367733D-02.
 Linear search not attempted -- option 19 set.
 Maximum step size (   0.300) exceeded in Quadratic search.
    -- Step size scaled by   0.215
 Variable       Old X    -DE/DX   Delta X   Delta X   Delta X     New X
                                 (Linear)    (Quad)   (Total)
    R1        2.04620   0.00003   0.00000   0.00012   0.00012   2.04631
    R2        2.04620   0.00002   0.00000   0.00012   0.00012   2.04631
    A2        2.09286   0.00002   0.00000  -0.00087  -0.00087   2.09199
    R3        2.04620   0.00002   0.00000   0.00012   0.00012   2.04631
    A3        2.09289   0.00002   0.00000  -0.00091  -0.00091   2.09198
    D3        3.04152   0.00004   0.00000  -0.03177  -0.03177   3.00975
    R4        4.84734   0.00000   0.00000  -0.28797  -0.28797   4.55937
    A4        1.59124   0.00004   0.00000   0.01743   0.01743   1.60868
    D4        4.66873  -0.00003   0.00000  -0.02538  -0.02538   4.64335
    D6        3.13867   0.00001   0.00000   0.00352   0.00352   3.14219
    A6        1.57422  -0.00001   0.00000  -0.00325  -0.00325   1.57097
    R6        1.66844  -0.06242   0.00000  -0.07137  -0.07137   1.59707
    R5        1.88973   0.00000   0.00000   0.00000   0.00000   1.88973
    A5        1.57080  -0.00001   0.00000   0.00000   0.00000   1.57080
    D5        3.14159  -0.00000   0.00000   0.00000   0.00000   3.14159
         Item               Value     Threshold  Converged?
 Maximum Force            0.062422     0.000450     NO 
 RMS     Force            0.018020     0.000300     NO 
 Maximum Displacement     0.287967     0.001800     NO 
 RMS     Displacement     0.077460     0.001200     NO 
 Predicted change in Energy=-3.952350D-03
 Lowest energy point so far.  Saving SCF results.
 GradGradGradGradGradGradGradGradGradGradGradGradGradGradGradGradGradGrad

 Leave Link  103 at Fri Aug 23 16:09:32 2019, MaxMem=  2684354560 cpu:         0.1
 (Enter /soft/gaussian/09-e.01/g09/l202.exe)
 ---------------------------------------------------------------------------------------------------
                            Z-MATRIX (ANGSTROMS AND DEGREES)
   CD    Cent   Atom    N1       Length/X        N2       Alpha/Y        N3        Beta/Z          J
 ---------------------------------------------------------------------------------------------------
      1      1  C 
      2      2  H        1   1.082861(     1)
      3      3  H        1   1.082862(     2)      2  119.862(     7)
      4      4  H        1   1.082861(     3)      2  119.862(     8)      3  172.446(    12)      0
      5      5  H        1   2.412715(     4)      2   92.170(     9)      3  266.044(    13)      0
      6         X        5   1.000000(     5)      1   90.000(    10)      2  180.000(    14)      0
      7      6  H        5   0.845134(     6)      6   90.010(    11)      1  180.034(    15)      0
 ---------------------------------------------------------------------------------------------------
                         Z-Matrix orientation:                         
 ---------------------------------------------------------------------
 Center     Atomic      Atomic             Coordinates (Angstroms)
 Number     Number       Type             X           Y           Z
 ---------------------------------------------------------------------
      1          6           0        0.000000    0.000000    0.000000
      2          1           0        0.000000    0.000000    1.082861
      3          1           0        0.939085    0.000000   -0.539174
      4          1           0       -0.930941   -0.123454   -0.539164
      5          1           0       -0.166322    2.405240   -0.091377
      6         -1           0       -0.163709    2.367457   -1.090659
      7          1           0       -0.225089    3.247726   -0.123240
 ---------------------------------------------------------------------
                    Distance matrix (angstroms):
                    1          2          3          4          5
     1  C    0.000000
     2  H    1.082861   0.000000
     3  H    1.082862   1.874268   0.000000
     4  H    1.082861   1.874262   1.874097   0.000000
     5  H    2.412715   2.681730   2.684702   2.679450   0.000000
     6  X    2.611741   3.218050   2.669297   2.664101   1.000000
     7  H    3.257849   3.471753   3.475058   3.469305   0.845134
                    6          7
     6  X    0.000000
     7  H    1.309405   0.000000
 Stoichiometry    CH5(2)
 Framework group  C1[X(CH5)]
 Deg. of freedom    12
 Full point group                 C1      NOp   1
 RotChk:  IX=1 Diff= 1.72D+00
 Largest Abelian subgroup         C1      NOp   1
 Largest concise Abelian subgroup C1      NOp   1
                         Standard orientation:                         
 ---------------------------------------------------------------------
 Center     Atomic      Atomic             Coordinates (Angstroms)
 Number     Number       Type             X           Y           Z
 ---------------------------------------------------------------------
      1          6           0        0.504251   -0.000043   -0.000200
      2          1           0        0.545180   -1.082047    0.013198
      3          1           0        0.549133    0.552773    0.929838
      4          1           0        0.542244    0.529297   -0.944099
      5          1           0       -1.908463    0.000158    0.001149
      6          1           0       -2.753598    0.000077    0.001115
 ---------------------------------------------------------------------
 Rotational constants (GHZ):    142.7574007     30.6209129     30.6200892
 Leave Link  202 at Fri Aug 23 16:09:33 2019, MaxMem=  2684354560 cpu:         0.1
 (Enter /soft/gaussian/09-e.01/g09/l301.exe)
 Standard basis: 6-31G(d) (6D, 7F)
 Ernie: Thresh=  0.10000D-02 Tol=  0.10000D-05 Strict=F.
 There are    25 symmetry adapted cartesian basis functions of A   symmetry.
 There are    25 symmetry adapted basis functions of A   symmetry.
    25 basis functions,    48 primitive gaussians,    25 cartesian basis functions
     6 alpha electrons        5 beta electrons
       nuclear repulsion energy        13.6092230162 Hartrees.
 IExCor=  402 DFT=T Ex+Corr=B3LYP ExCW=0 ScaHFX=  0.200000
 ScaDFX=  0.800000  0.720000  1.000000  0.810000 ScalE2=  1.000000  1.000000
 IRadAn=      5 IRanWt=     -1 IRanGd=            0 ICorTp=0 IEmpDi=  4
 NAtoms=    6 NActive=    6 NUniq=    6 SFac= 1.00D+00 NAtFMM=   60 NAOKFM=F Big=F
 Integral buffers will be    131072 words long.
 Raffenetti 2 integral format.
 Two-electron integral symmetry is turned on.
 Leave Link  301 at Fri Aug 23 16:09:33 2019, MaxMem=  2684354560 cpu:         0.5
 (Enter /soft/gaussian/09-e.01/g09/l302.exe)
 NPDir=0 NMtPBC=     1 NCelOv=     1 NCel=       1 NClECP=     1 NCelD=      1
         NCelK=      1 NCelE2=     1 NClLst=     1 CellRange=     0.0.
 One-electron integrals computed using PRISM.
 NBasis=    25 RedAO= T EigKep=  2.55D-02  NBF=    25
 NBsUse=    25 1.00D-06 EigRej= -1.00D+00 NBFU=    25
 Precomputing XC quadrature grid using
 IXCGrd= 4 IRadAn=           5 IRanWt=          -1 IRanGd=           0 AccXCQ= 0.00D+00.
 Generated NRdTot=       0 NPtTot=           0 NUsed=           0 NTot=          32
 NSgBfM=    25    25    25    25    25 MxSgAt=     6 MxSgA2=     6.
 Leave Link  302 at Fri Aug 23 16:09:33 2019, MaxMem=  2684354560 cpu:         1.6
 (Enter /soft/gaussian/09-e.01/g09/l303.exe)
 DipDrv:  MaxL=1.
 Leave Link  303 at Fri Aug 23 16:09:33 2019, MaxMem=  2684354560 cpu:         0.2
 (Enter /soft/gaussian/09-e.01/g09/l401.exe)
 Initial guess from the checkpoint file:  "/blues/gpfs/home/elliott/Packages/PACC/moldriver/rcdriver/rundir/RXN/CH3.H2/MDUSDFXREFXETQ/0_0/2_1/UHFFFAOYSA-N/CH4.H/HXBDELFRWIQQII/0_0/1_2/UHFFFAOYSA-N/2/ezvlpJU/TS/RUN/OPTI/A00/Gau-45906.chk"
 B after Tr=    -0.000000   -0.000000    0.000000
         Rot=    0.793763   -0.608225   -0.001606   -0.000059 Ang= -74.92 deg.
 Guess basis will be translated and rotated to current coordinates.
 JPrj=2 DoOrth=T DoCkMO=T.
 Initial guess <Sx>= 0.0000 <Sy>= 0.0000 <Sz>= 0.5000 <S**2>= 0.7538 S= 0.5019
 Generating alternative initial guess.
 ExpMin= 1.61D-01 ExpMax= 3.05D+03 ExpMxC= 4.57D+02 IAcc=2 IRadAn=         4 AccDes= 0.00D+00
 Harris functional with IExCor=  402 and IRadAn=       4 diagonalized for initial guess.
 HarFok:  IExCor=  402 AccDes= 0.00D+00 IRadAn=         4 IDoV= 1 UseB2=F ITyADJ=14
 ICtDFT=  3500011 ScaDFX=  1.000000  1.000000  1.000000  1.000000
 FoFCou: FMM=F IPFlag=           0 FMFlag=      100000 FMFlg1=           0
         NFxFlg=           0 DoJE=T BraDBF=F KetDBF=T FulRan=T
         wScrn=  0.000000 ICntrl=     500 IOpCl=  0 I1Cent=   200000004 NGrid=           0
         NMat0=    1 NMatS0=      1 NMatT0=    0 NMatD0=    1 NMtDS0=    0 NMtDT0=    0
 Petite list used in FoFCou.
 Harris En= -41.0034616627493    
 Leave Link  401 at Fri Aug 23 16:09:33 2019, MaxMem=  2684354560 cpu:         2.2
 (Enter /soft/gaussian/09-e.01/g09/l502.exe)
 UHF open shell SCF:
 Using DIIS extrapolation, IDIIS=  1040.
 Integral symmetry usage will be decided dynamically.
 Keep R1 and R2 ints in memory in canonical form, NReq=976418.
 IVT=        8268 IEndB=        8268 NGot=  2684354560 MDV=  2684240343
 LenX=  2684240343 LenY=  2684239277
 Requested convergence on RMS density matrix=1.00D-08 within  64 cycles.
 Requested convergence on MAX density matrix=1.00D-06.
 Requested convergence on             energy=1.00D-06.
 No special actions if energy rises.
 FoFCou: FMM=F IPFlag=           0 FMFlag=           0 FMFlg1=           0
         NFxFlg=           0 DoJE=F BraDBF=F KetDBF=F FulRan=T
         wScrn=  0.000000 ICntrl=     600 IOpCl=  0 I1Cent=           0 NGrid=           0
         NMat0=    1 NMatS0=    325 NMatT0=    0 NMatD0=    1 NMtDS0=    0 NMtDT0=    0
 Symmetry not used in FoFCou.
 Integral accuracy reduced to 1.0D-05 until final iterations.

 Cycle   1  Pass 0  IDiag  1:
 E= -41.0085780786012    
 DIIS: error= 4.39D-03 at cycle   1 NSaved=   1.
 NSaved= 1 IEnMin= 1 EnMin= -41.0085780786012     IErMin= 1 ErrMin= 4.39D-03
 ErrMax= 4.39D-03  0.00D+00 EMaxC= 1.00D-01 BMatC= 5.44D-04 BMatP= 5.44D-04
 IDIUse=3 WtCom= 9.56D-01 WtEn= 4.39D-02
 Coeff-Com:  0.100D+01
 Coeff-En:   0.100D+01
 Coeff:      0.100D+01
 Gap=     2.643 Goal=   None    Shift=    0.000
 Gap=     2.516 Goal=   None    Shift=    0.000
 GapD=    2.516 DampG=2.000 DampE=1.000 DampFc=2.0000 IDamp=-1.
 RMSDP=7.19D-04 MaxDP=5.31D-03              OVMax= 1.04D-02

 Cycle   2  Pass 0  IDiag  1:
 E= -41.0088416423796     Delta-E=       -0.000263563778 Rises=F Damp=F
 DIIS: error= 4.60D-04 at cycle   2 NSaved=   2.
 NSaved= 2 IEnMin= 2 EnMin= -41.0088416423796     IErMin= 2 ErrMin= 4.60D-04
 ErrMax= 4.60D-04  0.00D+00 EMaxC= 1.00D-01 BMatC= 1.16D-05 BMatP= 5.44D-04
 IDIUse=3 WtCom= 9.95D-01 WtEn= 4.60D-03
 Coeff-Com:  0.768D-01 0.923D+00
 Coeff-En:   0.000D+00 0.100D+01
 Coeff:      0.764D-01 0.924D+00
 Gap=     0.326 Goal=   None    Shift=    0.000
 Gap=     0.340 Goal=   None    Shift=    0.000
 RMSDP=1.35D-04 MaxDP=1.27D-03 DE=-2.64D-04 OVMax= 2.50D-03

 Cycle   3  Pass 0  IDiag  1:
 E= -41.0088495434443     Delta-E=       -0.000007901065 Rises=F Damp=F
 DIIS: error= 1.15D-04 at cycle   3 NSaved=   3.
 NSaved= 3 IEnMin= 3 EnMin= -41.0088495434443     IErMin= 3 ErrMin= 1.15D-04
 ErrMax= 1.15D-04  0.00D+00 EMaxC= 1.00D-01 BMatC= 9.52D-07 BMatP= 1.16D-05
 IDIUse=3 WtCom= 9.99D-01 WtEn= 1.15D-03
 Coeff-Com: -0.194D-01-0.396D-01 0.106D+01
 Coeff-En:   0.000D+00 0.000D+00 0.100D+01
 Coeff:     -0.193D-01-0.396D-01 0.106D+01
 Gap=     0.325 Goal=   None    Shift=    0.000
 Gap=     0.341 Goal=   None    Shift=    0.000
 RMSDP=5.42D-05 MaxDP=4.34D-04 DE=-7.90D-06 OVMax= 6.81D-04

 Cycle   4  Pass 0  IDiag  1:
 E= -41.0088502198353     Delta-E=       -0.000000676391 Rises=F Damp=F
 DIIS: error= 8.14D-05 at cycle   4 NSaved=   4.
 NSaved= 4 IEnMin= 4 EnMin= -41.0088502198353     IErMin= 4 ErrMin= 8.14D-05
 ErrMax= 8.14D-05  0.00D+00 EMaxC= 1.00D-01 BMatC= 4.61D-07 BMatP= 9.52D-07
 IDIUse=1 WtCom= 1.00D+00 WtEn= 0.00D+00
 Coeff-Com: -0.146D-01-0.919D-01 0.456D+00 0.650D+00
 Coeff:     -0.146D-01-0.919D-01 0.456D+00 0.650D+00
 Gap=     0.325 Goal=   None    Shift=    0.000
 Gap=     0.341 Goal=   None    Shift=    0.000
 RMSDP=1.75D-05 MaxDP=1.43D-04 DE=-6.76D-07 OVMax= 1.94D-04

 Cycle   5  Pass 0  IDiag  1:
 E= -41.0088503883920     Delta-E=       -0.000000168557 Rises=F Damp=F
 DIIS: error= 2.58D-05 at cycle   5 NSaved=   5.
 NSaved= 5 IEnMin= 5 EnMin= -41.0088503883920     IErMin= 5 ErrMin= 2.58D-05
 ErrMax= 2.58D-05  0.00D+00 EMaxC= 1.00D-01 BMatC= 3.06D-08 BMatP= 4.61D-07
 IDIUse=1 WtCom= 1.00D+00 WtEn= 0.00D+00
 Coeff-Com:  0.399D-02 0.425D-02-0.200D+00 0.197D-01 0.117D+01
 Coeff:      0.399D-02 0.425D-02-0.200D+00 0.197D-01 0.117D+01
 Gap=     0.325 Goal=   None    Shift=    0.000
 Gap=     0.341 Goal=   None    Shift=    0.000
 RMSDP=9.43D-06 MaxDP=8.20D-05 DE=-1.69D-07 OVMax= 1.44D-04

 Initial convergence to 1.0D-05 achieved.  Increase integral accuracy.
 Cycle   6  Pass 1  IDiag  1:
 E= -41.0088497643742     Delta-E=        0.000000624018 Rises=F Damp=F
 DIIS: error= 8.64D-06 at cycle   1 NSaved=   1.
 NSaved= 1 IEnMin= 1 EnMin= -41.0088497643742     IErMin= 1 ErrMin= 8.64D-06
 ErrMax= 8.64D-06  0.00D+00 EMaxC= 1.00D-01 BMatC= 1.37D-09 BMatP= 1.37D-09
 IDIUse=1 WtCom= 1.00D+00 WtEn= 0.00D+00
 Coeff-Com:  0.100D+01
 Coeff:      0.100D+01
 Gap=     0.325 Goal=   None    Shift=    0.000
 Gap=     0.341 Goal=   None    Shift=    0.000
 RMSDP=9.43D-06 MaxDP=8.20D-05 DE= 6.24D-07 OVMax= 3.11D-05

 Cycle   7  Pass 1  IDiag  1:
 E= -41.0088497654827     Delta-E=       -0.000000001108 Rises=F Damp=F
 DIIS: error= 4.22D-06 at cycle   2 NSaved=   2.
 NSaved= 2 IEnMin= 2 EnMin= -41.0088497654827     IErMin= 2 ErrMin= 4.22D-06
 ErrMax= 4.22D-06  0.00D+00 EMaxC= 1.00D-01 BMatC= 2.79D-10 BMatP= 1.37D-09
 IDIUse=1 WtCom= 1.00D+00 WtEn= 0.00D+00
 Coeff-Com: -0.157D+00 0.116D+01
 Coeff:     -0.157D+00 0.116D+01
 Gap=     0.325 Goal=   None    Shift=    0.000
 Gap=     0.341 Goal=   None    Shift=    0.000
 RMSDP=7.19D-07 MaxDP=9.19D-06 DE=-1.11D-09 OVMax= 1.82D-05

 Cycle   8  Pass 1  IDiag  1:
 E= -41.0088497657377     Delta-E=       -0.000000000255 Rises=F Damp=F
 DIIS: error= 2.19D-06 at cycle   3 NSaved=   3.
 NSaved= 3 IEnMin= 3 EnMin= -41.0088497657377     IErMin= 3 ErrMin= 2.19D-06
 ErrMax= 2.19D-06  0.00D+00 EMaxC= 1.00D-01 BMatC= 6.99D-11 BMatP= 2.79D-10
 IDIUse=1 WtCom= 1.00D+00 WtEn= 0.00D+00
 Coeff-Com: -0.261D+00 0.251D+00 0.101D+01
 Coeff:     -0.261D+00 0.251D+00 0.101D+01
 Gap=     0.325 Goal=   None    Shift=    0.000
 Gap=     0.341 Goal=   None    Shift=    0.000
 RMSDP=4.64D-07 MaxDP=5.84D-06 DE=-2.55D-10 OVMax= 9.47D-06

 Cycle   9  Pass 1  IDiag  1:
 E= -41.0088497657970     Delta-E=       -0.000000000059 Rises=F Damp=F
 DIIS: error= 2.28D-07 at cycle   4 NSaved=   4.
 NSaved= 4 IEnMin= 4 EnMin= -41.0088497657970     IErMin= 4 ErrMin= 2.28D-07
 ErrMax= 2.28D-07  0.00D+00 EMaxC= 1.00D-01 BMatC= 4.29D-12 BMatP= 6.99D-11
 IDIUse=1 WtCom= 1.00D+00 WtEn= 0.00D+00
 Coeff-Com: -0.671D-01 0.198D-01 0.262D+00 0.785D+00
 Coeff:     -0.671D-01 0.198D-01 0.262D+00 0.785D+00
 Gap=     0.325 Goal=   None    Shift=    0.000
 Gap=     0.341 Goal=   None    Shift=    0.000
 RMSDP=7.10D-08 MaxDP=6.15D-07 DE=-5.93D-11 OVMax= 1.03D-06

 Cycle  10  Pass 1  IDiag  1:
 E= -41.0088497657988     Delta-E=       -0.000000000002 Rises=F Damp=F
 DIIS: error= 1.13D-07 at cycle   5 NSaved=   5.
 NSaved= 5 IEnMin= 5 EnMin= -41.0088497657988     IErMin= 5 ErrMin= 1.13D-07
 ErrMax= 1.13D-07  0.00D+00 EMaxC= 1.00D-01 BMatC= 9.54D-13 BMatP= 4.29D-12
 IDIUse=1 WtCom= 1.00D+00 WtEn= 0.00D+00
 Coeff-Com:  0.241D-01-0.422D-01-0.975D-01 0.303D+00 0.813D+00
 Coeff:      0.241D-01-0.422D-01-0.975D-01 0.303D+00 0.813D+00
 Gap=     0.325 Goal=   None    Shift=    0.000
 Gap=     0.341 Goal=   None    Shift=    0.000
 RMSDP=3.67D-08 MaxDP=3.18D-07 DE=-1.87D-12 OVMax= 5.02D-07

 Cycle  11  Pass 1  IDiag  1:
 E= -41.0088497657993     Delta-E=       -0.000000000000 Rises=F Damp=F
 DIIS: error= 1.92D-08 at cycle   6 NSaved=   6.
 NSaved= 6 IEnMin= 6 EnMin= -41.0088497657993     IErMin= 6 ErrMin= 1.92D-08
 ErrMax= 1.92D-08  0.00D+00 EMaxC= 1.00D-01 BMatC= 1.60D-14 BMatP= 9.54D-13
 IDIUse=1 WtCom= 1.00D+00 WtEn= 0.00D+00
 Coeff-Com: -0.122D-02 0.581D-02 0.550D-02-0.911D-01-0.123D+00 0.120D+01
 Coeff:     -0.122D-02 0.581D-02 0.550D-02-0.911D-01-0.123D+00 0.120D+01
 Gap=     0.325 Goal=   None    Shift=    0.000
 Gap=     0.341 Goal=   None    Shift=    0.000
 RMSDP=7.72D-09 MaxDP=7.90D-08 DE=-4.76D-13 OVMax= 8.79D-08

 SCF Done:  E(UB3LYP) =  -41.0088497658     A.U. after   11 cycles
            NFock= 11  Conv=0.77D-08     -V/T= 2.0124
 <Sx>= 0.0000 <Sy>= 0.0000 <Sz>= 0.5000 <S**2>= 0.7539 S= 0.5019
 <L.S>= 0.000000000000E+00
 KE= 4.050530810669D+01 PE=-1.211380700613D+02 EE= 2.601468917263D+01
 Annihilation of the first spin contaminant:
 S**2 before annihilation     0.7539,   after     0.7500
 Leave Link  502 at Fri Aug 23 16:09:34 2019, MaxMem=  2684354560 cpu:         6.2
 (Enter /soft/gaussian/09-e.01/g09/l508.exe)
 QCSCF skips out because SCF is already converged.
 Leave Link  508 at Fri Aug 23 16:09:34 2019, MaxMem=  2684354560 cpu:         0.0
 (Enter /soft/gaussian/09-e.01/g09/l701.exe)
 Compute integral first derivatives.
 ... and contract with generalized density number  0.
 Leave Link  701 at Fri Aug 23 16:09:34 2019, MaxMem=  2684354560 cpu:         1.6
 (Enter /soft/gaussian/09-e.01/g09/l702.exe)
 L702 exits ... SP integral derivatives will be done elsewhere.
 Leave Link  702 at Fri Aug 23 16:09:34 2019, MaxMem=  2684354560 cpu:         0.2
 (Enter /soft/gaussian/09-e.01/g09/l703.exe)
 Compute integral first derivatives, UseDBF=F ICtDFT=           0.
 Integral derivatives from FoFJK, PRISM(SPDF).
 Calling FoFJK, ICntrl=      2127 FMM=F ISym2X=0 I1Cent= 0 IOpClX= 1 NMat=1 NMatS=1 NMatT=0.
 FoFJK:  IHMeth= 1 ICntrl=    2127 DoSepK=F KAlg= 0 I1Cent=   0 FoldK=F
 IRaf=         0 NMat=   1 IRICut=       1 DoRegI=T DoRafI=F ISym2E= 0.
 FoFCou: FMM=F IPFlag=           0 FMFlag=      100000 FMFlg1=         800
         NFxFlg=           0 DoJE=F BraDBF=F KetDBF=F FulRan=T
         wScrn=  0.000000 ICntrl=    2127 IOpCl=  1 I1Cent=           0 NGrid=           0
         NMat0=    1 NMatS0=      1 NMatT0=    0 NMatD0=    1 NMtDS0=    0 NMtDT0=    0
 Symmetry not used in FoFCou.
 Leave Link  703 at Fri Aug 23 16:09:34 2019, MaxMem=  2684354560 cpu:         2.2
 (Enter /soft/gaussian/09-e.01/g09/l716.exe)
 Dipole        = 1.62802702D-01-4.79712544D-06-2.07359955D-04
 ***** Axes restored to original set *****
 -------------------------------------------------------------------
 Center     Atomic                   Forces (Hartrees/Bohr)
 Number     Number              X              Y              Z
 -------------------------------------------------------------------
      1        6           0.000060948   -0.000956962    0.000015499
      2        1          -0.000003015    0.000041267    0.000022615
      3        1           0.000029664    0.000050190   -0.000003726
      4        1          -0.000034671    0.000034277   -0.000002626
      5        1          -0.003468391    0.049795948   -0.001883290
      6        1           0.003415465   -0.048964720    0.001851527
 -------------------------------------------------------------------
 Cartesian Forces:  Max     0.049795948 RMS     0.016513930
 -----------------------------------------------------------------------------------------------
                       Internal Coordinate Forces (Hartree/Bohr or radian)
  Cent   Atom   N1       Length/X         N2         Alpha/Y        N3         Beta/Z          J
 -----------------------------------------------------------------------------------------------
      1  C 
      2  H        1   0.000023(     1)
      3  H        1   0.000028(     2)      2  -0.000024(     7)
      4  H        1   0.000027(     3)      2  -0.000026(     8)      3   0.000068(    12)     0
      5  H        1   0.000834(     4)      2   0.000001(     9)      3   0.000021(    13)     0
         X        5   0.000000(     5)      1  -0.000001(    10)      2  -0.000000(    14)     0
      6  H        5  -0.049119(     6)      6  -0.000001(    11)      1   0.000000(    15)     0
 -----------------------------------------------------------------------------------------------
 Internal  Forces:  Max     0.049118605 RMS     0.012684217
 Leave Link  716 at Fri Aug 23 16:09:34 2019, MaxMem=  2684354560 cpu:         0.2
 (Enter /soft/gaussian/09-e.01/g09/l103.exe)

 GradGradGradGradGradGradGradGradGradGradGradGradGradGradGradGradGradGrad
 Berny optimization.
 Search for a saddle point.
 Step number   2 out of a maximum of   25
 All quantities printed in internal units (Hartrees-Bohrs-Radians)
 Swapping is turned off.
 Update second derivatives using D2CorN and points    1    2
 The second derivative matrix:
                          R1        R2        A2        R3        A3
           R1           0.37566
           R2           0.00057   0.37566
           A2           0.01615   0.00010   0.19598
           R3           0.00057   0.00056  -0.01604   0.37566
           A3           0.01615  -0.01604   0.09747   0.00010   0.19597
           D3           0.00020   0.00160  -0.00826   0.00164  -0.00793
           R4           0.00000   0.00001  -0.00011   0.00002  -0.00011
           A4          -0.00006   0.00003  -0.00026   0.00003  -0.00027
           D4           0.00000   0.00005   0.00032  -0.00005  -0.00034
           D6           0.00000  -0.00023  -0.00004   0.00022   0.00003
           A6           0.00027  -0.00013   0.00011  -0.00013   0.00010
           R6           0.00002   0.00003   0.00003   0.00003   0.00002
           R5          -0.00000   0.00000   0.00000   0.00000   0.00000
           A5           0.00027  -0.00013   0.00011  -0.00013   0.00011
           D5          -0.00000   0.00000  -0.00000  -0.00000  -0.00000
                          D3        R4        A4        D4        D6
           D3           0.01027
           R4          -0.00072   0.00194
           A4           0.00139   0.00001   0.00484
           D4          -0.00237   0.00002   0.00002   0.00477
           D6          -0.00041  -0.00000  -0.00000   0.00082   0.00362
           A6           0.00023  -0.00000   0.00081  -0.00000   0.00000
           R6           0.00085   0.00682  -0.00021   0.00028  -0.00003
           R5           0.00000   0.00000   0.00000   0.00000  -0.00000
           A5           0.00023  -0.00000   0.00081  -0.00000   0.00000
           D5           0.00000   0.00000  -0.00000  -0.00000  -0.00001
                          A6        R6        R5        A5        D5
           A6           0.00363
           R6           0.00003   0.14726
           R5          -0.00000   0.00000  -0.00000
           A5           0.00363   0.00000  -0.00000   0.00363
           D5          -0.00001   0.00000   0.00000  -0.00001   0.00000
 ITU=  0  0
     Eigenvalues ---    0.00152   0.00302   0.00322   0.00414   0.00524
     Eigenvalues ---    0.01113   0.09757   0.14758   0.28526   0.37604
     Eigenvalues ---    0.37680   0.383741000.000001000.000001000.00000
 Eigenvectors required to have negative eigenvalues:
                          R4        D3        D4        A4        R6
   1                    0.98398   0.12744   0.09534  -0.06288  -0.04703
                          D6        A6        A3        A2        R2
   1                   -0.01240   0.01064   0.00396   0.00376  -0.00042
 Eigenvalue     1 is   1.52D-03 should be less than     0.000000 Eigenvector:
                          R4        D3        D4        A4        R6
   1                    0.98398   0.12744   0.09534  -0.06288  -0.04703
                          D6        A6        A3        A2        R2
   1                   -0.01240   0.01064   0.00396   0.00376  -0.00042
 RFO step:  Lambda0=3.989937044D-03 Lambda=-1.48037561D-02.
 Linear search not attempted -- option 19 set.
 Maximum step size (   0.300) exceeded in Quadratic search.
    -- Step size scaled by   0.230
 Variable       Old X    -DE/DX   Delta X   Delta X   Delta X     New X
                                 (Linear)    (Quad)   (Total)
    R1        2.04631   0.00002   0.00000   0.00015   0.00015   2.04646
    R2        2.04631   0.00003   0.00000   0.00015   0.00015   2.04646
    A2        2.09199  -0.00002   0.00000  -0.00114  -0.00114   2.09085
    R3        2.04631   0.00003   0.00000   0.00014   0.00014   2.04646
    A3        2.09198  -0.00003   0.00000  -0.00122  -0.00122   2.09076
    D3        3.00975   0.00007   0.00000  -0.03833  -0.03833   2.97142
    R4        4.55937   0.00083   0.00000  -0.28999  -0.28999   4.26938
    A4        1.60868   0.00000   0.00000   0.02004   0.02004   1.62872
    D4        4.64335   0.00002   0.00000  -0.03027  -0.03027   4.61308
    D6        3.14219   0.00000   0.00000   0.00406   0.00406   3.14625
    A6        1.57097  -0.00000   0.00000  -0.00347  -0.00347   1.56750
    R6        1.59707  -0.04912   0.00000  -0.05556  -0.05556   1.54151
    R5        1.88973   0.00000   0.00000   0.00000   0.00000   1.88973
    A5        1.57080  -0.00000   0.00000   0.00000   0.00000   1.57080
    D5        3.14159  -0.00000   0.00000   0.00000   0.00000   3.14159
         Item               Value     Threshold  Converged?
 Maximum Force            0.049119     0.000450     NO 
 RMS     Force            0.014181     0.000300     NO 
 Maximum Displacement     0.289991     0.001800     NO 
 RMS     Displacement     0.077460     0.001200     NO 
 Predicted change in Energy=-2.064691D-03
 Lowest energy point so far.  Saving SCF results.
 GradGradGradGradGradGradGradGradGradGradGradGradGradGradGradGradGradGrad

 Leave Link  103 at Fri Aug 23 16:09:34 2019, MaxMem=  2684354560 cpu:         0.1
 (Enter /soft/gaussian/09-e.01/g09/l202.exe)
 ---------------------------------------------------------------------------------------------------
                            Z-MATRIX (ANGSTROMS AND DEGREES)
   CD    Cent   Atom    N1       Length/X        N2       Alpha/Y        N3        Beta/Z          J
 ---------------------------------------------------------------------------------------------------
      1      1  C 
      2      2  H        1   1.082939(     1)
      3      3  H        1   1.082940(     2)      2  119.797(     7)
      4      4  H        1   1.082938(     3)      2  119.792(     8)      3  170.250(    12)      0
      5      5  H        1   2.259258(     4)      2   93.319(     9)      3  264.310(    13)      0
      6         X        5   1.000000(     5)      1   90.000(    10)      2  180.000(    14)      0
      7      6  H        5   0.815732(     6)      6   89.811(    11)      1  180.267(    15)      0
 ---------------------------------------------------------------------------------------------------
                         Z-Matrix orientation:                         
 ---------------------------------------------------------------------
 Center     Atomic      Atomic             Coordinates (Angstroms)
 Number     Number       Type             X           Y           Z
 ---------------------------------------------------------------------
      1          6           0        0.000000    0.000000    0.000000
      2          1           0        0.000000    0.000000    1.082939
      3          1           0        0.939767    0.000000   -0.538143
      4          1           0       -0.926237   -0.159158   -0.538059
      5          1           0       -0.223618    2.244357   -0.130787
      6         -1           0       -0.217879    2.186753   -1.129110
      7          1           0       -0.308123    3.054163   -0.180694
 ---------------------------------------------------------------------
                    Distance matrix (angstroms):
                    1          2          3          4          5
     1  C    0.000000
     2  H    1.082939   0.000000
     3  H    1.082940   1.873785   0.000000
     4  H    1.082938   1.873734   1.872780   0.000000
     5  H    2.259258   2.561303   2.560575   2.537011   0.000000
     6  X    2.470677   3.118095   2.543870   2.520795   1.000000
     7  H    3.074980   3.319581   3.318571   3.291687   0.815732
                    6          7
     6  X    0.000000
     7  H    1.288424   0.000000
 Stoichiometry    CH5(2)
 Framework group  C1[X(CH5)]
 Deg. of freedom    12
 Full point group                 C1      NOp   1
 RotChk:  IX=1 Diff= 1.61D-01
 Largest Abelian subgroup         C1      NOp   1
 Largest concise Abelian subgroup C1      NOp   1
                         Standard orientation:                         
 ---------------------------------------------------------------------
 Center     Atomic      Atomic             Coordinates (Angstroms)
 Number     Number       Type             X           Y           Z
 ---------------------------------------------------------------------
      1          6           0        0.470399    0.000359   -0.001015
      2          1           0        0.535270   -1.073182    0.125712
      3          1           0        0.534193    0.649146    0.863720
      4          1           0        0.501557    0.427602   -0.995623
[...]
 (Enter /soft/gaussian/09-e.01/g09/l103.exe)

 GradGradGradGradGradGradGradGradGradGradGradGradGradGradGradGradGradGrad
 Berny optimization.
 Search for a saddle point.
 Step number  19 out of a maximum of   25
 All quantities printed in internal units (Hartrees-Bohrs-Radians)
 Swapping is turned off.
 Update second derivatives using D2CorN and points   10   11   12   13   14
                                                         15   16   17   18   19
 The second derivative matrix:
                          R1        R2        A2        R3        A3
           R1           0.37567
           R2           0.00055   0.37574
           A2           0.01619  -0.00052   0.20045
           R3           0.00051   0.00050  -0.01563   0.37559
           A3           0.01649  -0.01532   0.09298   0.00061   0.19349
           D3           0.00028   0.01088  -0.05142   0.00774  -0.02650
           R4           0.00182   0.00277  -0.01465   0.00185  -0.00991
           A4           0.00188  -0.00100   0.00606  -0.00133   0.00899
           D4          -0.00045  -0.00104   0.01402   0.00269  -0.02000
           D6           0.00028  -0.00077  -0.00206   0.00174  -0.00329
           A6           0.00053  -0.00029  -0.00153  -0.00028   0.00025
           R6          -0.00001   0.00035  -0.00080  -0.00073   0.00654
           R5          -0.00000   0.00000   0.00000   0.00000  -0.00000
           A5           0.00019  -0.00014   0.00020  -0.00019   0.00076
           D5           0.00000   0.00000  -0.00002   0.00000  -0.00001
                          D3        R4        A4        D4        D6
           D3           0.09541
           R4          -0.01266   0.01411
           A4           0.02078   0.00867   0.07214
           D4          -0.04576  -0.00464  -0.00242   0.07440
           D6          -0.00043   0.00004   0.00294   0.00666   0.02621
           A6           0.00052   0.00222   0.00190  -0.00436  -0.00057
           R6           0.01453   0.07375   0.01600  -0.01320  -0.00284
           R5          -0.00000  -0.00000   0.00000   0.00000   0.00000
           A5          -0.00016   0.00095   0.00045   0.00083   0.00079
           D5          -0.00005   0.00005  -0.00008   0.00002  -0.00001
                          A6        R6        R5        A5        D5
           A6           0.02983
           R6           0.01204   0.12934
           R5           0.00000   0.00000  -0.00000
           A5           0.02304  -0.00160  -0.00000   0.00363
           D5           0.00005   0.00013   0.00000  -0.00001   0.00000
 ITU=  0  0  0  0  0  0  0  0  0  0  0  0  0  0  0  0
     Eigenvalues ---   -0.02800   0.02421   0.02803   0.03129   0.06729
     Eigenvalues ---    0.08904   0.13689   0.17924   0.29560   0.37607
     Eigenvalues ---    0.37714   0.385571000.000001000.000001000.00000
 Eigenvectors required to have negative eigenvalues:
                          R4        R6        D3        D4        A2
   1                    0.86402  -0.41919   0.22766   0.08941   0.07926
                          A4        A6        A3        D6        R2
   1                   -0.06322   0.06254   0.05531  -0.02125  -0.00941
 RFO step:  Lambda0=1.198767273D-08 Lambda=-1.61902282D-07.
 Linear search not attempted -- option 19 set.
 Variable       Old X    -DE/DX   Delta X   Delta X   Delta X     New X
                                 (Linear)    (Quad)   (Total)
    R1        2.05669  -0.00000   0.00000   0.00000   0.00000   2.05669
    R2        2.05670   0.00000   0.00000   0.00000   0.00000   2.05670
    A2        2.00570   0.00003   0.00000   0.00014   0.00014   2.00584
    R3        2.05668  -0.00000   0.00000   0.00002   0.00002   2.05670
    A3        2.00606  -0.00000   0.00000  -0.00024  -0.00024   2.00581
    D3        2.38742  -0.00004   0.00000  -0.00061  -0.00061   2.38681
    R4        2.68972   0.00004   0.00000  -0.00026  -0.00026   2.68946
    A4        1.80224  -0.00007   0.00000  -0.00090  -0.00090   1.80134
    D4        4.33557  -0.00002   0.00000  -0.00068  -0.00068   4.33489
    D6        3.14248  -0.00002   0.00000  -0.00062  -0.00062   3.14186
    A6        1.57167  -0.00002   0.00000  -0.00106  -0.00106   1.57061
    R6        1.68214   0.00002   0.00000   0.00054   0.00054   1.68268
    R5        1.88973   0.00000   0.00000   0.00000   0.00000   1.88973
    A5        1.57080  -0.00002   0.00000   0.00000   0.00000   1.57080
    D5        3.14159  -0.00000   0.00000   0.00000   0.00000   3.14159
         Item               Value     Threshold  Converged?
 Maximum Force            0.000075     0.000450     YES
 RMS     Force            0.000030     0.000300     YES
 Maximum Displacement     0.001063     0.001800     YES
 RMS     Displacement     0.000489     0.001200     YES
 Predicted change in Energy=-7.495730D-08
 Optimization completed.
    -- Stationary point found.
                       ----------------------------
                       !   Optimized Parameters   !
                       ! (Angstroms and Degrees)  !
 ----------------------                            ----------------------
 !      Name          Value   Derivative information (Atomic Units)     !
 ------------------------------------------------------------------------
 !       R1          1.0884   -DE/DX =    0.0                           !
 !       R2          1.0884   -DE/DX =    0.0                           !
 !       A2        114.9181   -DE/DX =    0.0                           !
 !       R3          1.0883   -DE/DX =    0.0                           !
 !       A3        114.9386   -DE/DX =    0.0                           !
 !       D3        136.7892   -DE/DX =    0.0                           !
 !       R4          1.4233   -DE/DX =    0.0                           !
 !       A4        103.2606   -DE/DX =   -0.0001                        !
 !       D4        248.4098   -DE/DX =    0.0                           !
 !       D6        180.0508   -DE/DX =    0.0                           !
 !       A6         90.0503   -DE/DX =    0.0                           !
 !       R6          0.8902   -DE/DX =    0.0                           !
 !       R5          1.0      -DE/DX =    0.0                           !
 !       A5         90.0      -DE/DX =    0.0                           !
 !       D5        180.0      -DE/DX =    0.0                           !
 ------------------------------------------------------------------------
 GradGradGradGradGradGradGradGradGradGradGradGradGradGradGradGradGradGrad

 Largest change from initial coordinates is atom    2       0.868 Angstoms.
 Leave Link  103 at Fri Aug 23 16:10:05 2019, MaxMem=  2684354560 cpu:         0.1
 (Enter /soft/gaussian/09-e.01/g09/l202.exe)
 ---------------------------------------------------------------------------------------------------
                            Z-MATRIX (ANGSTROMS AND DEGREES)
   CD    Cent   Atom    N1       Length/X        N2       Alpha/Y        N3        Beta/Z          J
 ---------------------------------------------------------------------------------------------------
      1      1  C 
      2      2  H        1   1.088355(     1)
      3      3  H        1   1.088358(     2)      2  114.918(     7)
      4      4  H        1   1.088349(     3)      2  114.939(     8)      3  136.789(    12)      0
      5      5  H        1   1.423341(     4)      2  103.261(     9)      3  248.410(    13)      0
      6         X        5   1.000000(     5)      1   90.000(    10)      2  180.000(    14)      0
      7      6  H        5   0.890151(     6)      6   90.050(    11)      1  180.051(    15)      0
 ---------------------------------------------------------------------------------------------------
                         Z-Matrix orientation:                         
 ---------------------------------------------------------------------
 Center     Atomic      Atomic             Coordinates (Angstroms)
 Number     Number       Type             X           Y           Z
 ---------------------------------------------------------------------
      1          6           0        0.000000    0.000000    0.000000
      2          1           0        0.000000    0.000000    1.088355
      3          1           0        0.987044    0.000000   -0.458549
      4          1           0       -0.719271   -0.675695   -0.458899
      5          1           0       -0.509776    1.288190   -0.326485
      6         -1           0       -0.425372    1.074904   -1.299822
      7          1           0       -0.829387    2.093695   -0.529907
 ---------------------------------------------------------------------
                    Distance matrix (angstroms):
                    1          2          3          4          5
     1  C    0.000000
     2  H    1.088355   0.000000
     3  H    1.088358   1.834984   0.000000
     4  H    1.088349   1.835186   1.835231   0.000000
     5  H    1.423341   1.980171   1.979228   1.979461   0.000000
     6  X    1.739511   2.653253   1.964199   1.964212   1.000000
     7  H    2.313491   2.773123   2.772737   2.772488   0.890151
                    6          7
     6  X    0.000000
     7  H    1.339378   0.000000
 Stoichiometry    CH5(2)
 Framework group  C1[X(CH5)]
 Deg. of freedom    12
 Full point group                 C1      NOp   1
 RotChk:  IX=2 Diff= 3.28D-16
 Largest Abelian subgroup         C1      NOp   1
 Largest concise Abelian subgroup C1      NOp   1
                         Standard orientation:                         
 ---------------------------------------------------------------------
 Center     Atomic      Atomic             Coordinates (Angstroms)
 Number     Number       Type             X           Y           Z
 ---------------------------------------------------------------------
      1          6           0        0.271835    0.000040   -0.000011
      2          1           0        0.521363   -0.448006   -0.959963
      3          1           0        0.520497   -0.607509    0.868076
      4          1           0        0.520289    1.055633    0.092167
      5          1           0       -1.151505   -0.000272    0.000312
      6          1           0       -2.041656   -0.000083   -0.000529
 ---------------------------------------------------------------------
 Rotational constants (GHZ):    148.9006380     57.5149458     57.5112666
 Leave Link  202 at Fri Aug 23 16:10:05 2019, MaxMem=  2684354560 cpu:         0.1
 (Enter /soft/gaussian/09-e.01/g09/l601.exe)
 Copying SCF densities to generalized density rwf, IOpCl= 1 IROHF=0.

 **********************************************************************

            Population analysis using the SCF density.

 **********************************************************************

 Orbital symmetries:
 Alpha Orbitals:
       Occupied  (A) (A) (A) (A) (A) (A)
       Virtual   (A) (A) (A) (A) (A) (A) (A) (A) (A) (A) (A) (A)
                 (A) (A) (A) (A) (A) (A) (A)
 Beta  Orbitals:
       Occupied  (A) (A) (A) (A) (A)
       Virtual   (A) (A) (A) (A) (A) (A) (A) (A) (A) (A) (A) (A)
                 (A) (A) (A) (A) (A) (A) (A) (A)
 The electronic state is 2-A.
 Alpha  occ. eigenvalues --  -10.19730  -0.70205  -0.44793  -0.41632  -0.41628
 Alpha  occ. eigenvalues --   -0.21331
 Alpha virt. eigenvalues --    0.11445   0.16961   0.16963   0.19994   0.52464
 Alpha virt. eigenvalues --    0.52468   0.55536   0.69352   0.89343   0.89349
 Alpha virt. eigenvalues --    0.92279   0.99893   1.19289   1.63573   1.63576
 Alpha virt. eigenvalues --    2.02044   2.20517   2.20529   4.16353
  Beta  occ. eigenvalues --  -10.18626  -0.67436  -0.40867  -0.40862  -0.40618
  Beta virt. eigenvalues --   -0.07366   0.12287   0.17613   0.17616   0.22890
  Beta virt. eigenvalues --    0.52928   0.52933   0.60483   0.73206   0.90061
  Beta virt. eigenvalues --    0.90067   0.94384   1.00852   1.21725   1.67785
  Beta virt. eigenvalues --    1.67789   2.07263   2.22104   2.22116   4.18908
          Condensed to atoms (all electrons):
               1          2          3          4          5          6
     1  C    5.415806   0.370421   0.370389   0.370421   0.126108  -0.130403
     2  H    0.370421   0.514496  -0.026125  -0.026105  -0.012781   0.002639
     3  H    0.370389  -0.026125   0.514539  -0.026101  -0.012802   0.002632
     4  H    0.370421  -0.026105  -0.026101   0.514486  -0.012813   0.002634
     5  H    0.126108  -0.012781  -0.012802  -0.012813   0.650984   0.258763
     6  H   -0.130403   0.002639   0.002632   0.002634   0.258763   0.875938
          Atomic-Atomic Spin Densities.
               1          2          3          4          5          6
     1  C    0.924058  -0.021634  -0.021666  -0.021654   0.018059  -0.147329
     2  H   -0.021634  -0.016120   0.003840   0.003836   0.002622   0.004703
     3  H   -0.021666   0.003840  -0.016096   0.003840   0.002636   0.004712
     4  H   -0.021654   0.003836   0.003840  -0.016110   0.002635   0.004711
     5  H    0.018059   0.002622   0.002636   0.002635  -0.168293  -0.006859
     6  H   -0.147329   0.004703   0.004712   0.004711  -0.006859   0.627660
 Mulliken charges and spin densities:
               1          2
     1  C   -0.522742   0.729835
     2  H    0.177456  -0.022753
     3  H    0.177469  -0.022735
     4  H    0.177479  -0.022743
     5  H    0.002541  -0.149201
     6  H   -0.012203   0.487597
 Sum of Mulliken charges =  -0.00000   1.00000
 Mulliken charges and spin densities with hydrogens summed into heavy atoms:
               1          2
     1  C   -0.000000   1.000000
 Electronic spatial extent (au):  <R**2>=             58.2125
 Charge=             -0.0000 electrons
 Dipole moment (field-independent basis, Debye):
    X=              0.7562    Y=              0.0001    Z=              0.0003  Tot=              0.7562
 Quadrupole moment (field-independent basis, Debye-Ang):
   XX=            -11.2295   YY=             -9.2323   ZZ=             -9.2332
   XY=             -0.0007   XZ=             -0.0011   YZ=              0.0000
 Traceless Quadrupole moment (field-independent basis, Debye-Ang):
   XX=             -1.3312   YY=              0.6661   ZZ=              0.6651
   XY=             -0.0007   XZ=             -0.0011   YZ=              0.0000
 Octapole moment (field-independent basis, Debye-Ang**2):
  XXX=              4.5620  YYY=              0.7064  ZZZ=             -0.1877  XYY=              1.4007
  XXY=             -0.0001  XXZ=             -0.0007  XZZ=              1.4011  YZZ=             -0.7056
  YYZ=              0.1888  XYZ=              0.0004
 Hexadecapole moment (field-independent basis, Debye-Ang**3):
 XXXX=            -58.7717 YYYY=            -15.9596 ZZZZ=            -15.9598 XXXY=             -0.0018
 XXXZ=             -0.0018 YYYX=              0.4392 YYYZ=              0.0002 ZZZX=             -0.1199
 ZZZY=             -0.0002 XXYY=            -11.8313 XXZZ=            -11.8304 YYZZ=             -5.3199
 XXYZ=              0.0004 YYXZ=              0.1169 ZZXY=             -0.4408
 N-N= 1.518908397402D+01 E-N=-1.242841967861D+02  KE= 4.057504224940D+01
                          Isotropic Fermi Contact Couplings
        Atom                 a.u.       MegaHertz       Gauss      10(-4) cm-1
     1  C(13)              0.19700     221.46821      79.02536      73.87384
     2  H(1)              -0.00764     -34.16905     -12.19237     -11.39757
     3  H(1)              -0.00764     -34.16653     -12.19147     -11.39673
     4  H(1)              -0.00765     -34.17724     -12.19529     -11.40030
     5  H(1)              -0.03808    -170.20414     -60.73307     -56.77399
     6  H(1)               0.16381     732.19808     261.26647     244.23499
 --------------------------------------------------------
       Center         ----  Spin Dipole Couplings  ----
                      3XX-RR        3YY-RR        3ZZ-RR
 --------------------------------------------------------
     1   Atom        0.757157     -0.378583     -0.378574
     2   Atom       -0.000276     -0.030735      0.031011
     3   Atom       -0.000312     -0.016311      0.016623
     4   Atom       -0.000315      0.047521     -0.047206
     5   Atom        0.214480     -0.107241     -0.107240
     6   Atom       -0.012757      0.006378      0.006378
 --------------------------------------------------------
                        XY            XZ            YZ
 --------------------------------------------------------
     1   Atom        0.000373      0.000567      0.000001
     2   Atom       -0.008307     -0.017806      0.036847
     3   Atom       -0.011222      0.016075     -0.045182
     4   Atom        0.019523      0.001725      0.008335
     5   Atom       -0.000002      0.000057      0.000001
     6   Atom        0.000008     -0.000031     -0.000000
 --------------------------------------------------------


 ---------------------------------------------------------------------------------
              Anisotropic Spin Dipole Couplings in Principal Axis System
 ---------------------------------------------------------------------------------

       Atom             a.u.   MegaHertz   Gauss  10(-4) cm-1        Axes

              Baa    -0.3786   -50.802   -18.128   -16.946 -0.0003  0.9918 -0.1277
     1 C(13)  Bbb    -0.3786   -50.801   -18.127   -16.945 -0.0005  0.1277  0.9918
              Bcc     0.7572   101.603    36.255    33.891  1.0000  0.0003  0.0005
 
              Baa    -0.0479   -25.575    -9.126    -8.531 -0.0001  0.9062 -0.4230
     2 H(1)   Bbb    -0.0072    -3.862    -1.378    -1.288  0.9426  0.1413  0.3026
              Bcc     0.0552    29.437    10.504     9.819 -0.3340  0.3986  0.8541
 
              Baa    -0.0479   -25.575    -9.126    -8.531 -0.0005  0.8192  0.5735
     3 H(1)   Bbb    -0.0072    -3.862    -1.378    -1.288  0.9429  0.1915 -0.2726
              Bcc     0.0552    29.437    10.504     9.819  0.3332 -0.5406  0.7725
 
              Baa    -0.0479   -25.575    -9.126    -8.531 -0.0005 -0.0869  0.9962
     4 H(1)   Bbb    -0.0072    -3.862    -1.378    -1.288  0.9429 -0.3318 -0.0285
              Bcc     0.0552    29.437    10.504     9.819  0.3331  0.9393  0.0821
 
              Baa    -0.1072   -57.219   -20.417   -19.086  0.0001  0.8762 -0.4819
     5 H(1)   Bbb    -0.1072   -57.218   -20.417   -19.086 -0.0002  0.4819  0.8762
              Bcc     0.2145   114.437    40.834    38.172  1.0000 -0.0000  0.0002
 
              Baa    -0.0128    -6.806    -2.429    -2.270  1.0000 -0.0004  0.0016
     6 H(1)   Bbb     0.0064     3.403     1.214     1.135 -0.0012  0.4831  0.8756
              Bcc     0.0064     3.403     1.214     1.135  0.0011  0.8756 -0.4831
 

 ---------------------------------------------------------------------------------

 No NMR shielding tensors so no spin-rotation constants.
 Leave Link  601 at Fri Aug 23 16:10:05 2019, MaxMem=  2684354560 cpu:         3.1
 (Enter /soft/gaussian/09-e.01/g09/l9999.exe)
 1\1\GINC-BLUESLOGIN2\FTS\UB3LYP\6-31G(d)\C1H5(2)\ELLIOTT\23-Aug-2019\1
 \\#P b3lyp/6-31g* # SCF=(xqc) # POpt=(CALCFC,TS,NOEIGEN) # int=ultrafi
 ne\\comment:\\0,2\C\H,1,R1\H,1,R2,2,A2\H,1,R3,2,A3,3,D3,0\H,1,R4,2,A4,
 3,D4,0\X,5,R5,1,A5,2,D5,0\H,5,R6,6,A6,1,D6,0\\R1=1.08835491\R2=1.08835
 769\A2=114.91807369\R3=1.08834864\A3=114.93858978\D3=136.78921729\R4=1
 .42334054\A4=103.26055711\D4=248.40978781\D6=180.05078443\A6=90.050341
 2\R6=0.89015127\R5=1.\A5=90.\D5=180.\\Version=ES64L-G09RevE.01\State=2
 -A\HF=-41.0020286\S2=0.758445\S2-1=0.\S2A=0.750023\RMSD=1.915e-09\RMSF
 =2.295e-05\Dipole=0.1066629,-0.2692651,0.0681062\Quadrupole=0.3042747,
 -0.7213041,0.4170295,0.481739,-0.1214031,0.3073113\PG=C01 [X(C1H5)]\\@


 Statistics are no substitute for judgment.
                            -- Henry Clay
 Job cpu time:       0 days  0 hours  5 minutes 37.5 seconds.
 File lengths (MBytes):  RWF=     87 Int=      0 D2E=      0 Chk=      2 Scr=      2
 Normal termination of Gaussian 09 at Fri Aug 23 16:10:05 2019.
