[Molden Format]
[Molpro variables]
_NUMVAR=  700.0000000000000    
_EV2006= 0.3674930886769165E-01
_EV= 0.3674932534394180E-01
_KJOULE= 0.3808798324128737E-03
_KJOULE/MOL= 0.3808798324128737E-03
_CM= 0.4556335267302901E-05
_CM-1= 0.4556335267302901E-05
_KCAL= 0.1593601117815568E-02
_KCAL/MOL= 0.1593601117815568E-02
_KELVIN2006= 0.3166828861084835E-05
_KELVIN= 0.3166814820820034E-05
_HERTZ2006= 0.1519829850815779E-15
_HERTZ= 0.1519829846011223E-15
_HZ2006= 0.1519829850815779E-15
_HZ= 0.1519829846011223E-15
_TOA2006= 0.5291772490000000    
_TOA= 0.5291772090000000    
_TOANG2006= 0.5291772490000000    
_TOANG= 0.5291772090000000    
_TORAD= 0.1745329251994330E-01
_TOCM=  219474.6306700000    
_TODEBYE=  2.541580000000000    
_TOEV2006=  27.21139610000000    
_TOEV=  27.21138390000000    
_TOHERTZ2006=  6579683899900000.    
_TOHERTZ=  6579683920700000.    
_TOHZ2006=  6579683899900000.    
_TOHZ=  6579683920700000.    
_TOK2006=  315773.3000000000    
_TOK=  315774.7000000000    
_TOKCAL=  627.5096000000000    
_TOKELVIN2006=  315773.3000000000    
_TOKELVIN=  315774.7000000000    
_TOKJ=  2625.500000000000    
_TOKJOULE=  2625.500000000000    
_ANG2006=  1.889725988578923    
_ANG=  1.889726131421507    
_ANGSTROM2006=  1.889725988578923    
_ANGSTROM=  1.889726131421507    
_IGNORE_UNDEF=  2.000000000000000    
_STRICTCHECK=  0.000000000000000    
_SEW_ONEEL=  0.000000000000000    
_CPPDONE=FALSE
_DKROLL_DONE=  0.000000000000000    
_FOCKDONE=  0.000000000000000    
_GRADONE=FALSE
_HESSDONE=TRUE
_INTDONE=TRUE
_SCFDONE=FALSE
_MODUL_CUDA=FALSE
_MODUL_SLATER=FALSE
_MODUL_MRCC=FALSE
_MRCC_EXEC=
_FITC_AO_SAVED=FALSE
_FITC_MO_SAVED=FALSE
_SHARED_FS=TRUE
_LSTYP=SEWARD
_INTYP=INTS
_GEOMTYP=ZMAT
_GRADTYP=ALASKA
_DIRECT=FALSE
_SYNCM=  0.000000000000000    
_BASIS=CC-PVDZ
_ZORIENT=  1.000000000000000    
_NELEC=  10.00000000000000    
_SPIN=  0.000000000000000    
!SPIN=  0.000000000000000    
_OPTCONV= 0.1452459898057686E-03
_QSDSTEP=  0.000000000000000    
_QSDIRC=  0.000000000000000    
_PROGRAM=FREQ
_CPUSTEP=  0.000000000000000    
_SYSSTEP=  0.000000000000000    
_WALLSTEP= 0.1100000000000000    
!DFMP2=  0.000000000000000    
!DFSCF=  0.000000000000000    
!SCSGRD=  0.000000000000000    
_BASINP=  610.0000000000000    
_CPUTOT=  55.36000000000000    
_DFTEXFAC=  1.000000000000000    
_DMX=-0.5717757137533889E-06
_DMY=-0.5599463934419498E-05
_DMZ= 0.1390306760861235    
_FREQUENCIES= -502.2019239316801    
_EMP2= -40.19811133300072    
_ENERGR= -40.06286803890798    
_ENERGU= -40.22605480009086    
_ENERGY= -40.19811133300072    
_ENUC=  11.12977545280951    
_FREQSTEP=  31.00000000000000    
!RS2GRSTATE=  1.000000000000000    
!RS2GRSYM=  1.000000000000000    
_GRADENERG= -40.19804482613547    
_GRADEXFAC=  9999.000000000000    
_GRADMETHOD=TRUE
_GRADRECORD=  5200.100000000000    
_VIRIAL= 0.3703060877684073E-01
!GRID_FREEZE= -1.000000000000000    
_ITERATIONS=  0.000000000000000    
_LASTNELEC=  2.000000000000000    
_LASTSPIN=  0.000000000000000    
_LASTSYM=  1.000000000000000    
_MPP_PROG=  1.000000000000000    
_MSENERGY= -40.19811133300072    
_NPROC_MPP=  4.000000000000000    
_NPROC_SMP=  1.000000000000000    
_NUMSTEP=  0.000000000000000    
_OPTCONVMX= 0.1202464822317779E-03
_OPTCONVRMS= 0.1815574872572108E-04
_OPTGRAD= 0.1836090635826297E-03
_OPTGRADMX= 0.1389915362679220E-03
_OPTGRADRMS= 0.2295113294782871E-04
_OPTSTEP=  4.000000000000000    
_ORBITAL=  2142.200000000000    
_PI=  3.141592653589793    
!MCACT=  2.000000000000000    
!MCCLOSED=  4.000000000000000    
!MCFREEZE=  0.000000000000000    
!MCMS2=  0.000000000000000    
!MCNEL=  2.000000000000000    
!MCNSTSYM=  1.000000000000000    
!MCSTATE=  1.000000000000000    
!MCSYM=  1.000000000000000    
!MCWEIGHT=  1.000000000000000    
_SEIG_MIN= 0.1525529071131290E-01
_SEWPROP=TRUE
_STATUS=  1.000000000000000    
_SYSTOT=  3.320000000000000    
_VERSION=  2010001.000000000    
_WALLTOT=  340.9200000000000    
_ZPE= 0.3132722659244404E-01
_DATE=30-Aug-19
_LASTORB=MCSCF
_MACHINE=Linux-2.6.34-12-desktop/tt106(x86_64) 64 bit mpp version
_OUTPUT=/home/carlo/qm/combustion/test_diss/newalg/ch4_ch3_h_vrc_test1/dist_3.0/molpro.xml
_PGROUP=C1
_TIME=07:33:28
_LIBMOL=/programs/molpro2010p/bin/../lib/
!SURFREC=  0.000000000000000    
!POLYREC=  0.000000000000000    
!DIPREC=  0.000000000000000    
!VSCFREC=  0.000000000000000    
!VCIREC=  0.000000000000000    
!PVCIREC=  0.000000000000000    
!VMP2REC=  0.000000000000000    
!VMCSCFREC=  0.000000000000000    
!GAREC=  0.000000000000000    
!SCFORB=  21002.00000000000    
!MCORB=  21422.00000000000    
!CIOCC=  6.000000000000000    
!CICORE=  1.000000000000000    
!CICLOS=  4.000000000000000    
!CIISTSYM=  1.000000000000000    
!CIISTMS2=  0.000000000000000    
!CIISTNEL=  8.000000000000000    
!NEWMOL=  0.000000000000000    
!NEWSYM=  0.000000000000000    
_SLFILES=slscratch
_NGSSTO=  9.000000000000000    
_SIN=SIN
_COS=COS
_TAN=TAN
_ACOS=ACOS
_ASIN=ASIN
_ATAN=ATAN
_COSH=COSH
_SINH=SINH
_TANH=TANH
_ABS=ABS
_MOD=MOD
_ERF=ERF
_REFC=REFC
_ERFC=ERFC
_HYPOT=HYPOT
_J0=J0
_J1=J1
_JN=JN
_GAMMA=GAMMA
_LGAMMA=LGAMMA
_Y0=Y0
_Y1=Y1
_YN=YN
_EXP=EXP
_LOG=LOG
_LOG10=LOG10
_SQRT=SQRT
_INT=INT
_NINT=NINT
_MAX=MAX
_MIN=MIN
_COSMO=  0.000000000000000    
_COSMOIT=  0.000000000000000    
_COSMOES=  0.000000000000000    
_COSMOEDS=  0.000000000000000    
_COSMOEC=  0.000000000000000    
_COSMOEDCORR=  0.000000000000000    
_FEPSI=  1.000000000000000    
_SL_IsMM=  0.000000000000000    
_SL_NSYM=  0.000000000000000    
_SL_System_BitSw=  0.000000000000000    
_SL_Unique_atoms=  0.000000000000000    
_SL_GRAD=  0.000000000000000    
_SL_MAXUPD_Hess=  5.000000000000000    
_SL_N_PRINT_COD=  5.000000000000000    
_SL_PRINT_CODES=  0.000000000000000    
_SL_BasType=  0.000000000000000    
_SL_Energy_Pred=  0.000000000000000    
_SL_New_Coords=  0.000000000000000    
_SL_Total_Nuclea=  0.000000000000000    
_SL_Highest_Mltp=  0.000000000000000    
_SL_Ref_Geom=  0.000000000000000    
!LATTICE= -1.000000000000000    
!NEWLATTICE=  0.000000000000000    
!LATGRAD_VAR=FALSE
!SEW_LATTICE=  1.000000000000000    
!LOCAL=  0.000000000000000    
!SAVEDOM= -1.000000000000000    
!RESTDOM= -1.000000000000000    
!SAVEDOM_HF= -1.000000000000000    
!RESTDOM_HF= -1.000000000000000    
!HESSREC=  5300.200000000000    
!FREQREC=  5400.200000000000    
!NMODREC=  5450.200000000000    
!GTASKS=  0.000000000000000    
!HTASKS=  5500.200000000000    
!THRCHG= 0.1000000000000000    
!DEBUG= -1.000000000000000    
!CFIT_CPHF=  0.000000000000000    
!RDOMAUX_CPHF=  3.000000000000000    
!THRAO_CPHF= 0.1000000000000000E-09
!THRMO_CPHF= 0.1000000000000000E-09
!THROV_CPHF= 0.1000000000000000E-11
!THRSW_CPHF= 0.1000000000000000E-09
!THRPROD_CPHF= 0.1000000000000000E-09
!THRAOPR_CPHF= 0.1000000000000000E-11
!CFIT_SCFGRD=  0.000000000000000    
!RDOMAUX_SCFGRD=  5.000000000000000    
!THRAO_SCFGRD= 0.1000000000000000E-09
!THRMO_SCFGRD= 0.1000000000000000E-09
!THROV_SCFGRD= 0.1000000000000000E-11
!THRSW_SCFGRD= 0.1000000000000000E-09
!THRPROD_SCFGRD= 0.1000000000000000E-09
!THRAOPR_SCFGRD= 0.1000000000000000E-11
!LOCFIT_SCF=  0.000000000000000    
!LOCFIT_MP2= -1.000000000000000    
_RIDOM=  0.000000000000000    
!CC2_METHOD=  0.000000000000000    
_BASIS2006=FALSE
_SVDDEL= -1.000000000000000    
_SVDDELA= -1.000000000000000    
_SVDDELP= -1.000000000000000    
_SVDDELF= -1.000000000000000    
_SVDDELS= -1.000000000000000    
_SVDDEL_ABS= -1.000000000000000    
_SVDDELA_ABS= -1.000000000000000    
_SVDDELP_ABS= -1.000000000000000    
_SVDDELF_ABS= -1.000000000000000    
_SVDDELS_ABS= -1.000000000000000    
_MAXBASIS=  0.000000000000000    
!OPT_CONICAL=  0.000000000000000    
!CLEARSP_JGRID=  0.000000000000000    
RCH1=  1.090130327181879    
RCH2=  1.090130704906441    
RCH3=  1.090131257609769    
AHCC1=  119.9107515342425    
AHCC2=  119.9083597184384    
AHCC3=  91.73004942845357    
B1=  173.9984483707896    
B2= -93.00124852970620    
RCH4=  3.000000000000000    
GX1=-0.6002594653385304E-05
GY1=-0.5502995691908374E-05
GZ1= 0.3444334394848417    
GX2= -1.024233439820485    
GY2= -1.786312318223854    
GZ2= 0.4065858056440315    
GX3= -1.034828667620888    
GY3=  1.780174415829230    
GZ3= 0.4068934057398047    
GX4=  2.059088221771732    
GY4= 0.6106928137396550E-02
GZ4= 0.4068646453014168    
GX5= 0.4541489199771931E-04
GY5= 0.9655006655626130E-04
GZ5= -5.324744953627960    
C1X1=-0.6002594653385304E-05
C1Y1=-0.5502995691908374E-05
C1Z1= 0.3444334394848417    
H2X2= -1.024233439820485    
H2Y2= -1.786312318223854    
H2Z2= 0.4065858056440315    
H3X3= -1.034828667620888    
H3Y3=  1.780174415829230    
H3Z3= 0.4068934057398047    
H4X4=  2.059088221771732    
H4Y4= 0.6106928137396552E-02
H4Z4= 0.4068646453014168    
H5X5= 0.4541489199771931E-04
H5Y5= 0.9655006655626130E-04
H5Z5= -5.324744953627960    
CBSEN= -40.19811133300072    
[Atoms] Angs
C     1    6        -0.0000031764       -0.0000029121        0.1822663262
H     2    1        -0.5420009930       -0.9452757670        0.2151559418
H     3    1        -0.5476077461        0.9420277289        0.2153187168
H     4    1         1.0896225583        0.0032316472        0.2153034974
H     5    1         0.0000240325        0.0000510921       -2.8177336732
[GTO]
  1 0
 s    9  1.00
  0.6665000000D+04  0.6920001793D-03
  0.1000000000D+04  0.5329001381D-02
  0.2280000000D+03  0.2707700701D-01
  0.6471000000D+02  0.1017180264D+00
  0.2106000000D+02  0.2747400712D+00
  0.7495000000D+01  0.4485641162D+00
  0.2797000000D+01  0.2850740738D+00
  0.5215000000D+00  0.1520400394D-01
  0.1596000000D+00 -0.3191000827D-02
 s    9  1.00
  0.6665000000D+04 -0.1460000642D-03
  0.1000000000D+04 -0.1154000508D-02
  0.2280000000D+03 -0.5725002519D-02
  0.6471000000D+02 -0.2331201026D-01
  0.2106000000D+02 -0.6395502813D-01
  0.7495000000D+01 -0.1499810660D+00
  0.2797000000D+01 -0.1272620560D+00
  0.5215000000D+00  0.5445292395D+00
  0.1596000000D+00  0.5804962554D+00
 s    9  1.00
  0.6665000000D+04  0.0000000000D+00
  0.1000000000D+04  0.0000000000D+00
  0.2280000000D+03  0.0000000000D+00
  0.6471000000D+02  0.0000000000D+00
  0.2106000000D+02  0.0000000000D+00
  0.7495000000D+01  0.0000000000D+00
  0.2797000000D+01  0.0000000000D+00
  0.5215000000D+00  0.0000000000D+00
  0.1596000000D+00  0.1000000000D+01
 p    4  1.00
  0.9439000000D+01  0.3810902127D-01
  0.2002000000D+01  0.2094801169D+00
  0.5456000000D+00  0.5085572839D+00
  0.1517000000D+00  0.4688422617D+00
 p    4  1.00
  0.9439000000D+01  0.0000000000D+00
  0.2002000000D+01  0.0000000000D+00
  0.5456000000D+00  0.0000000000D+00
  0.1517000000D+00  0.1000000000D+01
 d    1  1.00
  0.5500000000D+00  0.1000000000D+01
  
  2 0
 s    4  1.00
  0.1301000000D+02  0.1968498999D-01
  0.1962000000D+01  0.1379769298D+00
  0.4446000000D+00  0.4781477569D+00
  0.1220000000D+00  0.5012397451D+00
 s    4  1.00
  0.1301000000D+02  0.0000000000D+00
  0.1962000000D+01  0.0000000000D+00
  0.4446000000D+00  0.0000000000D+00
  0.1220000000D+00  0.1000000000D+01
 p    1  1.00
  0.7270000000D+00  0.1000000000D+01
  
  3 0
 s    4  1.00
  0.1301000000D+02  0.1968498999D-01
  0.1962000000D+01  0.1379769298D+00
  0.4446000000D+00  0.4781477569D+00
  0.1220000000D+00  0.5012397451D+00
 s    4  1.00
  0.1301000000D+02  0.0000000000D+00
  0.1962000000D+01  0.0000000000D+00
  0.4446000000D+00  0.0000000000D+00
  0.1220000000D+00  0.1000000000D+01
 p    1  1.00
  0.7270000000D+00  0.1000000000D+01
  
  4 0
 s    4  1.00
  0.1301000000D+02  0.1968498999D-01
  0.1962000000D+01  0.1379769298D+00
  0.4446000000D+00  0.4781477569D+00
  0.1220000000D+00  0.5012397451D+00
 s    4  1.00
  0.1301000000D+02  0.0000000000D+00
  0.1962000000D+01  0.0000000000D+00
  0.4446000000D+00  0.0000000000D+00
  0.1220000000D+00  0.1000000000D+01
 p    1  1.00
  0.7270000000D+00  0.1000000000D+01
  
  5 0
 s    4  1.00
  0.1301000000D+02  0.1968498999D-01
  0.1962000000D+01  0.1379769298D+00
  0.4446000000D+00  0.4781477569D+00
  0.1220000000D+00  0.5012397451D+00
 s    4  1.00
  0.1301000000D+02  0.0000000000D+00
  0.1962000000D+01  0.0000000000D+00
  0.4446000000D+00  0.0000000000D+00
  0.1220000000D+00  0.1000000000D+01
 p    1  1.00
  0.7270000000D+00  0.1000000000D+01
 
 
[MO]
 Sym=      1.1
 Ene=     -11.2404
 Spin= Alpha
 Occup=    2.000000
1 1.00131066105052
2 0.007605757341741
3 -0.007652544523589
4 0.000000000917599
5 -0.000000005728750
6 0.000102539913372
7 -0.000000029823917
8 0.000000001915691
9 -0.000016261831155
10 0.000356943097533
11 0.000357027272267
12 -0.000713970369800
13 -0.000000000604597
14 0.000000049296549
15 0.000000105299931
16 -0.000625241716757
17 0.001517383259989
18 -0.000254902735755
19 -0.000444531178640
20 0.000025846913113
21 -0.000625250677759
22 0.001517392807970
23 -0.000257540555251
24 0.000443005185873
25 0.000025922937669
26 -0.000625171293124
27 0.001517363280478
28 0.000512405084914
29 0.000001519485253
30 0.000025913901531
31 -0.000179121379581
32 0.000286320892972
33 0.000000000365478
34 0.000000000868127
35 0.000049663504694
 Sym=      2.1
 Ene=      -0.8988
 Spin= Alpha
 Occup=    2.000000
1 -0.026140733920202
2 0.76080769648505
3 -0.14278338891068
4 0.000001960353555
5 -0.000001308080148
6 0.015863738637542
7 -0.000001503782016
8 0.000000239936469
9 -0.003048503812889
10 0.001953123122652
11 0.001953121047495
12 -0.003906244170147
13 0.000000016336023
14 0.000000270080547
15 0.000000569934511
16 0.34629350664790
17 -0.14362069179000
18 0.013914670200484
19 0.024267632521660
20 -0.000385324711906
21 0.34629352778735
22 -0.14362063733077
23 0.014058617531777
24 -0.024184468737794
25 -0.000389520812568
26 0.34629469449174
27 -0.14362035541251
28 -0.027973620085359
29 -0.000083070413708
30 -0.000389125285153
31 0.005528863475780
32 0.000790200851316
33 -0.000000001377360
34 -0.000000001995206
35 0.000558067065384
 Sym=      3.1
 Ene=      -0.5705
 Spin= Alpha
 Occup=    2.000000
1 -0.000000013406414
2 0.000000159690029
3 0.000000044791277
4 -0.004316541657805
5 -0.63935631407579
6 -0.000054943999778
7 0.000793306180981
8 0.11750643493056
9 0.000010169694853
10 -0.000320032768871
11 0.000320345378435
12 -0.000000312609565
13 0.023591165639616
14 -0.000013460416187
15 -0.002291265238726
16 0.55362965212337
17 -0.15685095308833
18 0.015075008891080
19 0.014110366793578
20 -0.000703760379004
21 -0.54744930346641
22 0.15509981710421
23 -0.015227286356598
24 0.013725587154912
25 0.000698310537037
26 -0.006180555021004
27 0.001751035585008
28 0.000256984368705
29 -0.012325429088515
30 0.000006833453769
31 0.000000805825457
32 -0.000000078006092
33 -0.000002657333925
34 -0.000392652524251
35 0.000000032789218
 Sym=      4.1
 Ene=      -0.5705
 Spin= Alpha
 Occup=    2.000000
1 -0.000000080334034
2 0.000004219365375
3 0.000000503293912
4 -0.63935667684885
5 0.004316400790825
6 -0.000025072511035
7 0.11750317087235
8 -0.000793308279187
9 0.000004678579818
10 -0.020431273902922
11 0.020431339012375
12 -0.000000065109453
13 -0.000369397325591
14 -0.002293218099602
15 0.000017490768181
16 0.31250038654947
17 -0.088534269151524
18 -0.003770400624491
19 0.015005402155987
20 -0.000397126640359
21 0.32320547086770
22 -0.091567029102862
23 -0.003385764902034
24 -0.015297212715933
25 -0.000413376406778
26 -0.63570773855054
27 0.18010206347289
28 0.022665030166838
29 0.000187097133441
30 0.000811133064166
31 0.000000409849054
32 0.000000007885076
33 -0.000392658048140
34 0.000002644474537
35 0.000000025740485
 Sym=      5.1
 Ene=      -0.1993
 Spin= Alpha
 Occup=    1.301197
1 -0.000581965470903
2 -0.005291464223283
3 -0.004482610302618
4 -0.000024696743906
5 -0.000053037360966
6 0.58970852271397
7 -0.000002673697065
8 -0.000005938999497
9 0.070061519038349
10 0.001875311402023
11 0.001875463433014
12 -0.003750774835036
13 0.000000099787841
14 0.000000343453553
15 0.000000428945785
16 0.019430436795920
17 -0.007517443676880
18 0.000385011782274
19 0.000671247840269
20 0.013477053955504
21 0.019427023977422
22 -0.007516689432871
23 0.000388916370585
24 -0.000671133502468
25 0.013476807188605
26 0.019426937970046
27 -0.007516807406614
28 -0.000775487230814
29 -0.000003468476562
30 0.013476695238129
31 -0.66206844372831
32 -0.033077360946133
33 0.000000008626843
34 0.000000023018559
35 -0.000246368258121
 Sym=      6.1
 Ene=      -0.0815
 Spin= Alpha
 Occup=    0.698803
1 0.002343170507409
2 -0.034886344478638
3 -0.024210724476568
4 -0.000026031965014
5 -0.000056009693324
6 0.67116510938359
7 -0.000003077273454
8 -0.000006619709795
9 0.079242889023769
10 0.001092731681193
11 0.001092663589294
12 -0.002185395270486
13 -0.000000078221128
14 0.000000284833310
15 0.000000241609167
16 0.003879669799063
17 0.000907768132977
18 -0.000115137258783
19 -0.000201051947963
20 0.013719532307466
21 0.003883537571865
22 0.000907271164307
23 -0.000116232573960
24 0.000197864737590
25 0.013719524006207
26 0.003883034043405
27 0.000907287537801
28 0.000229698181516
29 -0.000000489766935
30 0.013719369321270
31 0.76408612109610
32 -0.039105830211463
33 -0.000000016888208
34 -0.000000045396420
35 -0.001904822578711
 Sym=      7.1
 Ene=       0.2003
 Spin= Alpha
 Occup=    0.000000
1 -0.080985612889660
2 0.21950519469963
3 2.05476539686198
4 0.000000120548597
5 -0.000000305770617
6 0.029221716476775
7 0.000007570923520
8 0.000001307820149
9 0.023993303838032
10 0.013069085543193
11 0.013070354696916
12 -0.026139440240109
13 -0.000000074768420
14 0.000001893830326
15 0.000003973048265
16 -0.061120181417913
17 -1.00539743021318
18 -0.008661819932109
19 -0.015105568601473
20 0.001639712953604
21 -0.061118184472029
22 -1.00541150823369
23 -0.008751489597806
24 0.015053698346996
25 0.001642349910012
26 -0.061114172640757
27 -1.00540821649662
28 0.017412376685830
29 0.000051597520387
30 0.001642070901830
31 0.090781891768138
32 -0.030883137300901
33 0.000000255373113
34 0.000000619078103
35 -0.004162789532406
 Sym=      8.1
 Ene=       0.2685
 Spin= Alpha
 Occup=    0.000000
1 -0.000000467504499
2 0.000000151904865
3 0.000009758181653
4 0.019661763973088
5 -0.44692240773780
6 -0.000036280812293
7 0.054308004978109
8 -1.23448720222146
9 -0.000105907838544
10 0.000728202159802
11 -0.000727711066851
12 -0.000000491092951
13 0.023978012944559
14 0.000142027930078
15 -0.003179960423208
16 -0.022311315799633
17 -1.81873430567061
18 -0.009483031927810
19 -0.020991213998542
20 0.000256607385449
21 0.023392962910573
22 1.90695372239003
23 0.010420512944161
24 -0.021748259082307
25 -0.000272588510483
26 -0.001083617147397
27 -0.088231480132975
28 0.001124541035817
29 -0.004130938159612
30 0.000012349562162
31 0.000008028863294
32 -0.000001362346714
33 -0.000142267995349
34 0.003250602782612
35 -0.000000310654141
 Sym=      9.1
 Ene=       0.2685
 Spin= Alpha
 Occup=    0.000000
1 0.000000257537798
2 0.000003467603153
3 -0.000003496550449
4 -0.44692497149867
5 -0.019661521229880
6 -0.000018855161574
7 -1.23446561980125
8 -0.054309342385355
9 -0.000054875269798
10 -0.020765752562716
11 0.020765098330197
12 0.000000654232518
13 0.000841089992091
14 -0.003181619867146
15 -0.000137838967543
16 -0.014140457946597
17 -1.15190633421589
18 -0.010256492688104
19 -0.010857806901301
20 0.000162569840245
21 -0.012266059490623
22 -0.99908850291013
23 -0.009499317614121
24 0.009045914785695
25 0.000142581400783
26 0.026395312916985
27 2.15100924587450
28 -0.027115698276805
29 -0.000250101328986
30 -0.000307048903957
31 0.000002700352287
32 0.000000305458846
33 0.003249852906272
34 0.000143708629238
35 -0.000000082256555
 Sym=     10.1
 Ene=       0.6140
 Spin= Alpha
 Occup=    0.000000
1 0.000015575634175
2 0.000035495429409
3 -0.000097879116887
4 -0.44587223880771
5 0.001423175090632
6 -0.000060207536662
7 1.64069937665092
8 -0.005236688164556
9 0.000088823034487
10 -0.10904955623125
11 0.10907389954233
12 -0.000024343311080
13 -0.001523973962031
14 -0.005561834489075
15 0.000028544534607
16 0.65904570706591
17 -0.23427077984246
18 0.053137003662339
19 -0.032861564662427
20 0.001026546403753
21 0.67326539476341
22 -0.23932602606676
23 0.052535677615894
24 0.032992545592526
25 0.001054392213787
26 -1.33198599555947
27 0.47338802092061
28 -0.004166272527647
29 -0.000454966131886
30 -0.002081024247969
31 0.000273655943878
32 -0.000291091291296
33 0.014161395704262
34 -0.000045421962981
35 -0.000005481214466
 Sym=     11.1
 Ene=       0.6140
 Spin= Alpha
 Occup=    0.000000
1 -0.000004612339611
2 -0.000010330093384
3 0.000035491548266
4 0.001423362701947
5 0.44587617158986
6 0.000058644123383
7 -0.005238044568460
8 -1.64077167567410
9 -0.000151746309907
10 0.001316224010413
11 -0.001325038486749
12 0.000008814476335
13 -0.12593589413388
14 0.000006933663457
15 0.005551790215103
16 -1.15776618901244
17 0.41143287993920
18 0.032641599133138
19 -0.014528913052559
20 -0.001806900297974
21 1.14949443921901
22 -0.40848616108096
23 -0.033201898569824
24 -0.015135863636632
25 0.001792602969108
26 0.008178495286053
27 -0.002901667889902
28 0.000236221516937
29 -0.071851106277529
30 0.000007186080076
31 -0.000158897621756
32 0.000163449815795
33 -0.000044986829204
34 -0.014161355279595
35 0.000005625261727
 Sym=     12.1
 Ene=       0.6320
 Spin= Alpha
 Occup=    0.000000
1 -0.070508957989704
2 -0.14818999866699
3 0.51869044283443
4 -0.000094581043027
5 -0.000076268002528
6 0.40699492989181
7 0.000305837557891
8 0.000168008174545
9 -0.31474091112230
10 -0.062276919974681
11 -0.062244427918799
12 0.12452134789348
13 0.000009350186514
14 -0.000008264048511
15 -0.000015879014230
16 -0.49728948090588
17 0.26206050954531
18 0.024125778076295
19 0.042059921126600
20 0.014362343241281
21 -0.49748072477476
22 0.26214593304897
23 0.024379717113904
24 -0.041914537103423
25 0.014359465232429
26 -0.49772033348253
27 0.26220666682094
28 -0.048488384616690
29 -0.000139541611900
30 0.014359238941307
31 -1.76356114928954
32 1.91237842829317
33 0.000002427801289
34 0.000001167048587
35 0.020674143540759
 Sym=     13.1
 Ene=       0.7186
 Spin= Alpha
 Occup=    0.000000
1 -0.064768555223179
2 -0.026791173786227
3 0.35368722935215
4 0.000023941417214
5 0.000094326864705
6 -1.07995568557270
7 0.000024731011920
8 -0.000115012667252
9 1.30475044926877
10 -0.087968732588678
11 -0.087969534726543
12 0.17593826731522
13 0.000000183073122
14 -0.000012686910059
15 -0.000026766648353
16 -0.77117321673685
17 0.56726927544366
18 0.036888664514086
19 0.064330218692252
20 -0.038109189835525
21 -0.77117313805200
22 0.56727038342345
23 0.037270409504273
24 -0.064103606903262
25 -0.038120817631750
26 -0.77123227906361
27 0.56725322326887
28 -0.074148133556274
29 -0.000216966338715
30 -0.038119932172114
31 0.29584975211444
32 -0.26350231829896
33 0.000000407878802
34 -0.000000439243925
35 -0.030596751548302
 Sym=     14.1
 Ene=       0.7965
 Spin= Alpha
 Occup=    0.000000
1 0.016448555604660
2 -0.14768489464441
3 0.14504262300863
4 0.000047530575278
5 0.000061090979015
6 -0.94215321787103
7 -0.000087712483906
8 -0.000062978197771
9 1.23022212615294
10 0.082311410211364
11 0.082319976815459
12 -0.16463138702682
13 -0.000000192851770
14 0.000014026606598
15 0.000029610147797
16 0.68549532914098
17 -0.65393790419509
18 -0.042142206382259
19 -0.073493462461832
20 -0.029299149570222
21 0.68546921266420
22 -0.65393094692331
23 -0.042579791641641
24 0.073251938284112
25 -0.029279785720971
26 0.68549389745783
27 -0.65389324566999
28 0.084721699812656
29 0.000255365054591
30 -0.029281708581235
31 -1.16794211674981
32 1.46190377990959
33 0.000000591845425
34 0.000001904756461
35 -0.095069688615169
 Sym=     15.1
 Ene=       0.8946
 Spin= Alpha
 Occup=    0.000000
1 0.000001260863644
2 0.000003560035159
3 -0.000003345933528
4 -1.25680634684933
5 0.035893303162888
6 -0.000048612015250
7 2.31190626310302
8 -0.066026189640329
9 0.000088841051163
10 0.28982762460327
11 -0.28982472262280
12 -0.000002901980475
13 0.012541827998118
14 0.018110653506972
15 -0.000545172003768
16 -0.28454976744140
17 0.94587871623771
18 0.015633715306676
19 0.14699429435704
20 -0.004819668849342
21 -0.31742937619615
22 1.05516955023032
23 0.026204125497332
24 -0.15934275789909
25 -0.005404059986384
26 0.60201505637502
27 -2.00108107787204
28 0.28622114408021
29 0.002979323664352
30 0.010235797630921
31 -0.000003542256157
32 0.000004806913759
33 0.001047401829324
34 -0.000032162538828
35 -0.000001773174933
 Sym=     16.1
 Ene=       0.8946
 Spin= Alpha
 Occup=    0.000000
1 0.000000750170471
2 0.000005395851814
3 -0.000009146502778
4 -0.035893155240739
5 -1.25680523084804
6 -0.000102224605267
7 0.066026049998132
8 2.31191904129268
9 0.000191236726199
10 0.010862275615956
11 -0.010866549482055
12 0.000004273866099
13 -0.33465715568217
14 0.000488458668360
15 0.018082051984311
16 -0.53085538874376
17 1.76454285747960
18 0.15323874266219
19 0.20307679723938
20 -0.008991641143605
21 0.51186185700280
22 -1.70143001960734
23 -0.15309478204761
24 0.19250292242438
25 0.008703569359906
26 0.018977276680782
27 -0.063092178136954
28 0.009225207265074
29 -0.067514544548987
30 0.000317038193307
31 0.000017793676221
32 -0.000021692846162
33 0.000027586929646
34 0.001044721828781
35 -0.000001372632161
 Sym=     17.1
 Ene=       1.0681
 Spin= Alpha
 Occup=    0.000000
1 -0.80112284118054
2 -3.63148100516027
3 6.08223106879817
4 -0.000006742305345
5 -0.000003655162211
6 0.025313557993180
7 0.000028549428613
8 0.000002928143186
9 -0.002964827006558
10 0.017438472374672
11 0.017451703676172
12 -0.034890176050844
13 -0.000000646267137
14 0.000000418843367
15 0.000002105548371
16 -0.17631989017505
17 -0.83811248375953
18 -0.090462989885716
19 -0.15777083911666
20 0.011320897094345
21 -0.17631584779711
22 -0.83812214442696
23 -0.091399225264096
24 0.15722871583413
25 0.011344156230015
26 -0.17632315978063
27 -0.83812761070715
28 0.18186158581457
29 0.000538985954421
30 0.011341188812394
31 0.19017075729192
32 -0.25158350956732
33 0.000001245856258
34 0.000002660655640
35 0.091412302813784
 Sym=     18.1
 Ene=       1.2127
 Spin= Alpha
 Occup=    0.000000
1 -0.000003751352768
2 -0.000015767057727
3 0.000025769309696
4 0.000033258468728
5 -0.006494870484057
6 0.000005087197365
7 0.000097925647413
8 -0.019205509955289
9 -0.000010402904162
10 -0.000112706375750
11 0.000018658065552
12 0.000094048310198
13 0.034147197205538
14 -0.003194248700812
15 0.62580043412162
16 -0.017951088985607
17 0.004324641858693
18 -0.016241708351917
19 0.001213096964055
20 -0.35793461971753
21 0.017985577422266
22 -0.004333028067098
23 0.016148941714234
24 0.001179065803981
25 0.35881942617740
26 -0.000049389970424
27 0.000012150658010
28 -0.000069010317261
29 0.029271363108015
30 -0.000882439367428
31 0.000030412563851
32 -0.000038086082405
33 0.000026232127101
34 -0.005151174676909
35 0.000006680334245
 Sym=     19.1
 Ene=       1.2127
 Spin= Alpha
 Occup=    0.000000
1 -0.000002489997227
2 -0.000010573579617
3 0.000017196530815
4 -0.006494369362121
5 -0.000033102746391
6 0.000000605676792
7 -0.019204505566271
8 -0.000098309774145
9 -0.000005195991682
10 -0.029637195383998
11 0.029591867385760
12 0.000045327998238
13 -0.000184102820110
14 0.62580177721255
15 0.003200139757198
16 -0.010414556068547
17 0.002508346290566
18 0.019934262692522
19 -0.016129107570880
20 -0.20767319980753
21 -0.010337830959023
22 0.002490198186973
23 0.019907243408043
24 0.016288249276330
25 -0.20613800727725
26 0.020743933081785
27 -0.004997968454087
28 -0.008178859985393
29 0.000002612030716
30 0.41381877790025
31 0.000014714521291
32 -0.000018559810481
33 -0.005151138125329
34 -0.000026401941771
35 0.000003660051158
 Sym=     20.1
 Ene=       1.5173
 Spin= Alpha
 Occup=    0.000000
1 0.000001461107759
2 0.000006369706219
3 -0.000012295621177
4 -0.012460680615506
5 0.012966810432760
6 0.000001925609400
7 -0.042482972483321
8 0.044240411630259
9 0.000000597413719
10 -0.028422723051089
11 0.028421530426511
12 0.000001192624578
13 -0.034782614531548
14 -0.003065397548007
15 0.003188287566323
16 0.020929704801536
17 0.001746245471377
18 0.033314968416301
19 -0.024690649620349
20 -0.001937528627083
21 -0.072363423556550
22 -0.006001685563832
23 0.017193590661284
24 -0.009395466612860
25 0.006694216527622
26 0.051431407419441
27 0.004265697626161
28 0.012006604658527
29 -0.030994015465260
30 -0.004760958641681
31 0.000001055154493
32 -0.000001337333380
33 -0.69029685927848
34 0.71860056613762
35 -0.000002343007383
 Sym=     21.1
 Ene=       1.5173
 Spin= Alpha
 Occup=    0.000000
1 0.000003301075402
2 0.000014502973233
3 -0.000026579713335
4 0.012963601328210
5 0.012448397990827
6 0.000004921401929
7 0.044238285793809
8 0.042510765711952
9 0.000001662130854
10 0.030120050505716
11 -0.030121871689872
12 0.000001821184155
13 -0.032822340886074
14 0.003185334112701
15 0.003057183519984
16 0.071461412027530
17 0.005962597707999
18 -0.018691721627600
19 -0.008366389872670
20 -0.006614621276728
21 -0.017612823216864
22 -0.001465956412140
23 -0.033993546068852
24 -0.024479743587366
25 0.001624954320392
26 -0.053854582304729
27 -0.004474087938351
28 -0.012388428199910
29 -0.029666091212804
30 0.004978791301736
31 0.000002433515460
32 -0.000003086072936
33 0.71860109123065
34 0.69029695348986
35 -0.000004072841120
 Sym=     22.1
 Ene=       1.5414
 Spin= Alpha
 Occup=    0.000000
1 0.067536797519120
2 0.30941556287980
3 -0.42967643201092
4 0.000005200996374
5 0.000011432799380
6 -0.26452944063329
7 -0.000021694841615
8 -0.000045861552360
9 0.26028891413341
10 0.062206485342220
11 0.062224046296952
12 -0.12443053163917
13 0.000021701490543
14 0.000007042965744
15 0.000015570656654
16 -0.003077115147678
17 0.033764485010710
18 0.007140321035617
19 0.012456034316675
20 0.090630390754166
21 -0.003006373506897
22 0.033749955032368
23 0.007225200691770
24 -0.012404585599850
25 0.090618686590562
26 -0.003012585127575
27 0.033750840748687
28 -0.014355455084006
29 -0.000028723438041
30 0.090617852629549
31 -0.10291937686381
32 0.14722336551508
33 0.000003033802217
34 0.000008260795315
35 0.97398366936592
 Sym=     23.1
 Ene=       1.6124
 Spin= Alpha
 Occup=    0.000000
1 0.000000000509321
2 0.000000002189272
3 -0.000000003688971