 Entering Gaussian System, Link 0=g09
 Input=run.inp
 Output=run.out
 Initial command:
 /soft/gaussian/09-e.01/g09/l1.exe "/blues/gpfs/home/elliott/Packages/PACC/moldriver/rcdriver/rundir/RXN/CH3.H2/MDUSDFXREFXETQ/0_0/2_1/UHFFFAOYSA-N/CH4.H/HXBDELFRWIQQII/0_0/1_2/UHFFFAOYSA-N/2/ezvlpJU/SCANS/R6/01/RUN/OPTI/A03/Gau-38719.inp" -scrdir="/blues/gpfs/home/elliott/Packages/PACC/moldriver/rcdriver/rundir/RXN/CH3.H2/MDUSDFXREFXETQ/0_0/2_1/UHFFFAOYSA-N/CH4.H/HXBDELFRWIQQII/0_0/1_2/UHFFFAOYSA-N/2/ezvlpJU/SCANS/R6/01/RUN/OPTI/A03/"
 Entering Link 1 = /soft/gaussian/09-e.01/g09/l1.exe PID=     38720.
  
 Copyright (c) 1988,1990,1992,1993,1995,1998,2003,2009,2015,
            Gaussian, Inc.  All Rights Reserved.
  
 This is part of the Gaussian(R) 09 program.  It is based on
 the Gaussian(R) 03 system (copyright 2003, Gaussian, Inc.),
 the Gaussian(R) 98 system (copyright 1998, Gaussian, Inc.),
 the Gaussian(R) 94 system (copyright 1995, Gaussian, Inc.),
 the Gaussian 92(TM) system (copyright 1992, Gaussian, Inc.),
 the Gaussian 90(TM) system (copyright 1990, Gaussian, Inc.),
 the Gaussian 88(TM) system (copyright 1988, Gaussian, Inc.),
 the Gaussian 86(TM) system (copyright 1986, Carnegie Mellon
 University), and the Gaussian 82(TM) system (copyright 1983,
 Carnegie Mellon University). Gaussian is a federally registered
 trademark of Gaussian, Inc.
  
 This software contains proprietary and confidential information,
 including trade secrets, belonging to Gaussian, Inc.
  
 This software is provided under written license and may be
 used, copied, transmitted, or stored only in accord with that
 written license.
  
 The following legend is applicable only to US Government
 contracts under FAR:
  
                    RESTRICTED RIGHTS LEGEND
  
 Use, reproduction and disclosure by the US Government is
 subject to restrictions as set forth in subparagraphs (a)
 and (c) of the Commercial Computer Software - Restricted
 Rights clause in FAR 52.227-19.
  
 Gaussian, Inc.
 340 Quinnipiac St., Bldg. 40, Wallingford CT 06492
  
  
 ---------------------------------------------------------------
 Warning -- This program may not be used in any manner that
 competes with the business of Gaussian, Inc. or will provide
 assistance to any competitor of Gaussian, Inc.  The licensee
 of this program is prohibited from giving any competitor of
 Gaussian, Inc. access to this program.  By using this program,
 the user acknowledges that Gaussian, Inc. is engaged in the
 business of creating and licensing software in the field of
 computational chemistry and represents and warrants to the
 licensee that it is not a competitor of Gaussian, Inc. and that
 it will not use this program in any manner prohibited above.
 ---------------------------------------------------------------
  

 Cite this work as:
 Gaussian 09, Revision E.01,
 M. J. Frisch, G. W. Trucks, H. B. Schlegel, G. E. Scuseria, 
 M. A. Robb, J. R. Cheeseman, G. Scalmani, V. Barone, B. Mennucci, 
 G. A. Petersson, H. Nakatsuji, M. Caricato, X. Li, H. P. Hratchian, 
 A. F. Izmaylov, J. Bloino, G. Zheng, J. L. Sonnenberg, M. Hada, 
 M. Ehara, K. Toyota, R. Fukuda, J. Hasegawa, M. Ishida, T. Nakajima, 
 Y. Honda, O. Kitao, H. Nakai, T. Vreven, J. A. Montgomery, Jr., 
 J. E. Peralta, F. Ogliaro, M. Bearpark, J. J. Heyd, E. Brothers, 
 K. N. Kudin, V. N. Staroverov, T. Keith, R. Kobayashi, J. Normand, 
 K. Raghavachari, A. Rendell, J. C. Burant, S. S. Iyengar, J. Tomasi, 
 M. Cossi, N. Rega, J. M. Millam, M. Klene, J. E. Knox, J. B. Cross, 
 V. Bakken, C. Adamo, J. Jaramillo, R. Gomperts, R. E. Stratmann, 
 O. Yazyev, A. J. Austin, R. Cammi, C. Pomelli, J. W. Ochterski, 
 R. L. Martin, K. Morokuma, V. G. Zakrzewski, G. A. Voth, 
 P. Salvador, J. J. Dannenberg, S. Dapprich, A. D. Daniels, 
 O. Farkas, J. B. Foresman, J. V. Ortiz, J. Cioslowski, 
 and D. J. Fox, Gaussian, Inc., Wallingford CT, 2013.
 
 ******************************************
 Gaussian 09:  ES64L-G09RevE.01 30-Nov-2015
                23-Aug-2019 
 ******************************************
 %mem=20GB
 %NProcShared=10
 Will use up to   10 processors via shared memory.
 -----------------------------------------------------
 #P b3lyp/6-31g* # SCF=(xqc) # POpt=() # int=ultrafine
 -----------------------------------------------------
 1/10=7,14=-1,26=4,38=1/1,3;
 2/12=2,17=6,18=5,29=3,40=1/2;
 3/5=1,6=6,7=1,11=2,16=1,25=1,30=1,71=1,74=-5,75=-5/1,2,3;
 4//1;
 5/5=2,8=3,13=1,38=5/2,8;
 6/7=2,8=2,9=2,10=2,28=1/1;
 7/29=1/1,2,3,16;
 1/10=7,14=-1,26=4/3(2);
 2/29=3/2;
 99//99;
 2/29=3/2;
 3/5=1,6=6,7=1,11=2,16=1,25=1,30=1,71=1,74=-5,75=-5/1,2,3;
 4/5=5,16=3,69=1/1;
 5/5=2,8=3,13=1,38=5/2,8;
 7//1,2,3,16;
 1/14=-1,26=4/3(-5);
 2/29=3/2;
 6/7=2,8=2,9=2,10=2,19=2,28=1/1;
 99/9=1/99;
 Leave Link    1 at Fri Aug 23 16:07:39 2019, MaxMem=  2684354560 cpu:         0.8
 (Enter /soft/gaussian/09-e.01/g09/l101.exe)
 --------
 comment:
 --------
 Symbolic Z-matrix:
 Charge =  0 Multiplicity = 2
 C
 H                    1    R1
 H                    1    R2       2    A2
 H                    1    R3       2    A3       3    D3       0
 H                    1    R4       2    A4       3    D4       0
 X                    5    R5       1    A5       2    D5       0
 H                    5    R6       6    A6       1    D6       0
       Variables:
  R1                    1.0958                   
  R2                    1.0811                   
  A2                  120.2234                   
  R3                    1.081                    
  A3                  120.2258                   
  D3                  175.793                    
  R4                    2.6848                   
  A4                   90.3283                   
  D4                  268.5793                   
  D6                  179.7834                   
  A6                   90.2415                   
       Constants:
  R5                    1.                       
  A5                   90.                       
  D5                  180.                       
  R6                    0.8829                   
 
 NAtoms=      6 NQM=        6 NQMF=       0 NMMI=      0 NMMIF=      0
                NMic=       0 NMicF=      0.
                    Isotopes and Nuclear Properties:
 (Nuclear quadrupole moments (NQMom) in fm**2, nuclear magnetic moments (NMagM)
  in nuclear magnetons)

  Atom         1           2           3           4           5           6
 IAtWgt=          12           1           1           1           1           1
 AtmWgt=  12.0000000   1.0078250   1.0078250   1.0078250   1.0078250   1.0078250
 NucSpn=           0           1           1           1           1           1
 AtZEff=   0.0000000   0.0000000   0.0000000   0.0000000   0.0000000   0.0000000
 NQMom=    0.0000000   0.0000000   0.0000000   0.0000000   0.0000000   0.0000000
 NMagM=    0.0000000   2.7928460   2.7928460   2.7928460   2.7928460   2.7928460
 AtZNuc=   6.0000000   1.0000000   1.0000000   1.0000000   1.0000000   1.0000000
 Leave Link  101 at Fri Aug 23 16:07:39 2019, MaxMem=  2684354560 cpu:         0.6
 (Enter /soft/gaussian/09-e.01/g09/l103.exe)

 GradGradGradGradGradGradGradGradGradGradGradGradGradGradGradGradGradGrad
 Berny optimization.
 Initialization pass.
                       ----------------------------
                       !    Initial Parameters    !
                       ! (Angstroms and Degrees)  !
 ----------------------                            ----------------------
 !      Name          Value   Derivative information (Atomic Units)     !
 ------------------------------------------------------------------------
 !       R1          1.0958   estimate D2E/DX2                          !
 !       R2          1.0811   estimate D2E/DX2                          !
 !       A2        120.2234   estimate D2E/DX2                          !
 !       R3          1.081    estimate D2E/DX2                          !
 !       A3        120.2258   estimate D2E/DX2                          !
 !       D3        175.793    estimate D2E/DX2                          !
 !       R4          2.6848   estimate D2E/DX2                          !
 !       A4         90.3283   estimate D2E/DX2                          !
 !       D4        268.5793   estimate D2E/DX2                          !
 !       D6        179.7834   estimate D2E/DX2                          !
 !       A6         90.2415   estimate D2E/DX2                          !
 !       R5          1.0      Frozen                                    !
 !       A5         90.0      Frozen                                    !
 !       D5        180.0      Frozen                                    !
 !       R6          0.8829   Frozen                                    !
 ------------------------------------------------------------------------
 Trust Radius=3.00D-01 FncErr=1.00D-07 GrdErr=1.00D-06
 Number of steps in this run=     25 maximum allowed number of steps=    100.
 GradGradGradGradGradGradGradGradGradGradGradGradGradGradGradGradGradGrad

 Leave Link  103 at Fri Aug 23 16:07:39 2019, MaxMem=  2684354560 cpu:         0.1
 (Enter /soft/gaussian/09-e.01/g09/l202.exe)
 ---------------------------------------------------------------------------------------------------
                            Z-MATRIX (ANGSTROMS AND DEGREES)
   CD    Cent   Atom    N1       Length/X        N2       Alpha/Y        N3        Beta/Z          J
 ---------------------------------------------------------------------------------------------------
      1      1  C 
      2      2  H        1   1.095800(     1)
      3      3  H        1   1.081100(     2)      2  120.223(     7)
      4      4  H        1   1.081000(     3)      2  120.226(     8)      3  175.793(    12)      0
      5      5  H        1   2.684800(     4)      2   90.328(     9)      3  268.579(    13)      0
      6         X        5   1.000000(     5)      1   90.000(    10)      2  180.000(    14)      0
      7      6  H        5   0.882900(     6)      6   90.242(    11)      1  179.783(    15)      0
 ---------------------------------------------------------------------------------------------------
                         Z-Matrix orientation:                         
 ---------------------------------------------------------------------
 Center     Atomic      Atomic             Coordinates (Angstroms)
 Number     Number       Type             X           Y           Z
 ---------------------------------------------------------------------
      1          6           0        0.000000    0.000000    0.000000
      2          1           0        0.000000    0.000000    1.095800
      3          1           0        0.934145    0.000000   -0.544196
      4          1           0       -0.931519   -0.068521   -0.544185
      5          1           0       -0.066564    2.683931   -0.015384
      6         -1           0       -0.066422    2.678203   -1.015367
      7          1           0       -0.085117    3.566635   -0.016721
 ---------------------------------------------------------------------
                    Distance matrix (angstroms):
                    1          2          3          4          5
     1  C    0.000000
     2  H    1.095800   0.000000
     3  H    1.081100   1.887383   0.000000
     4  H    1.081000   1.887320   1.866923   0.000000
     5  H    2.684800   2.905623   2.912824   2.933218   0.000000
     6  X    2.864987   3.410895   2.897569   2.918029   1.000000
     7  H    3.567689   3.737089   3.746733   3.769479   0.882900
                    6          7
     6  X    0.000000
     7  H    1.336770   0.000000
 Stoichiometry    CH5(2)
 Framework group  C1[X(CH5)]
 Deg. of freedom    12
 Full point group                 C1      NOp   1
 Largest Abelian subgroup         C1      NOp   1
 Largest concise Abelian subgroup C1      NOp   1
                         Standard orientation:                         
 ---------------------------------------------------------------------
 Center     Atomic      Atomic             Coordinates (Angstroms)
 Number     Number       Type             X           Y           Z
 ---------------------------------------------------------------------
      1          6           0        0.562171    0.000330   -0.000770
      2          1           0        0.565889    1.096079   -0.010630
      3          1           0        0.581567   -0.552316   -0.929739
      4          1           0        0.607646   -0.535598    0.936926
      5          1           0       -2.122616   -0.005895    0.004802
      6          1           0       -3.005513   -0.004251    0.003263
 ---------------------------------------------------------------------
 Rotational constants (GHZ):    141.8238618     25.8222786     25.7546898
 Leave Link  202 at Fri Aug 23 16:07:39 2019, MaxMem=  2684354560 cpu:         0.3
 (Enter /soft/gaussian/09-e.01/g09/l301.exe)
 Standard basis: 6-31G(d) (6D, 7F)
 Ernie: Thresh=  0.10000D-02 Tol=  0.10000D-05 Strict=F.
 There are    25 symmetry adapted cartesian basis functions of A   symmetry.
 There are    25 symmetry adapted basis functions of A   symmetry.
    25 basis functions,    48 primitive gaussians,    25 cartesian basis functions
     6 alpha electrons        5 beta electrons
       nuclear repulsion energy        13.2550746944 Hartrees.
 IExCor=  402 DFT=T Ex+Corr=B3LYP ExCW=0 ScaHFX=  0.200000
 ScaDFX=  0.800000  0.720000  1.000000  0.810000 ScalE2=  1.000000  1.000000
 IRadAn=      5 IRanWt=     -1 IRanGd=            0 ICorTp=0 IEmpDi=  4
 NAtoms=    6 NActive=    6 NUniq=    6 SFac= 1.00D+00 NAtFMM=   60 NAOKFM=F Big=F
 Integral buffers will be    131072 words long.
 Raffenetti 2 integral format.
 Two-electron integral symmetry is turned on.
 Leave Link  301 at Fri Aug 23 16:07:39 2019, MaxMem=  2684354560 cpu:         0.6
 (Enter /soft/gaussian/09-e.01/g09/l302.exe)
 NPDir=0 NMtPBC=     1 NCelOv=     1 NCel=       1 NClECP=     1 NCelD=      1
         NCelK=      1 NCelE2=     1 NClLst=     1 CellRange=     0.0.
 One-electron integrals computed using PRISM.
 NBasis=    25 RedAO= T EigKep=  2.68D-02  NBF=    25
 NBsUse=    25 1.00D-06 EigRej= -1.00D+00 NBFU=    25
 Precomputing XC quadrature grid using
 IXCGrd= 4 IRadAn=           5 IRanWt=          -1 IRanGd=           0 AccXCQ= 0.00D+00.
 Generated NRdTot=       0 NPtTot=           0 NUsed=           0 NTot=          32
 NSgBfM=    25    25    25    25    25 MxSgAt=     6 MxSgA2=     6.
 Leave Link  302 at Fri Aug 23 16:07:40 2019, MaxMem=  2684354560 cpu:         1.7
 (Enter /soft/gaussian/09-e.01/g09/l303.exe)
 DipDrv:  MaxL=1.
 Leave Link  303 at Fri Aug 23 16:07:40 2019, MaxMem=  2684354560 cpu:         0.2
 (Enter /soft/gaussian/09-e.01/g09/l401.exe)
 ExpMin= 1.61D-01 ExpMax= 3.05D+03 ExpMxC= 4.57D+02 IAcc=3 IRadAn=         5 AccDes= 0.00D+00
 Harris functional with IExCor=  402 and IRadAn=       5 diagonalized for initial guess.
 HarFok:  IExCor=  402 AccDes= 0.00D+00 IRadAn=         5 IDoV= 1 UseB2=F ITyADJ=14
 ICtDFT=  3500011 ScaDFX=  1.000000  1.000000  1.000000  1.000000
 FoFCou: FMM=F IPFlag=           0 FMFlag=      100000 FMFlg1=           0
         NFxFlg=           0 DoJE=T BraDBF=F KetDBF=T FulRan=T
         wScrn=  0.000000 ICntrl=     500 IOpCl=  0 I1Cent=   200000004 NGrid=           0
         NMat0=    1 NMatS0=      1 NMatT0=    0 NMatD0=    1 NMtDS0=    0 NMtDT0=    0
 Petite list used in FoFCou.
 Harris En= -40.9974805158998    
 JPrj=0 DoOrth=F DoCkMO=F.
 Initial guess <Sx>= 0.0000 <Sy>= 0.0000 <Sz>= 0.5000 <S**2>= 0.7500 S= 0.5000
 Leave Link  401 at Fri Aug 23 16:07:40 2019, MaxMem=  2684354560 cpu:         1.9
 (Enter /soft/gaussian/09-e.01/g09/l502.exe)
 UHF open shell SCF:
 Using DIIS extrapolation, IDIIS=  1040.
 Integral symmetry usage will be decided dynamically.
 Keep R1 and R2 ints in memory in canonical form, NReq=976418.
 IVT=        8268 IEndB=        8268 NGot=  2684354560 MDV=  2684240343
 LenX=  2684240343 LenY=  2684239277
 Requested convergence on RMS density matrix=1.00D-08 within  64 cycles.
 Requested convergence on MAX density matrix=1.00D-06.
 Requested convergence on             energy=1.00D-06.
 No special actions if energy rises.
 FoFCou: FMM=F IPFlag=           0 FMFlag=           0 FMFlg1=           0
         NFxFlg=           0 DoJE=F BraDBF=F KetDBF=F FulRan=T
         wScrn=  0.000000 ICntrl=     600 IOpCl=  0 I1Cent=           0 NGrid=           0
         NMat0=    1 NMatS0=    325 NMatT0=    0 NMatD0=    1 NMtDS0=    0 NMtDT0=    0
 Symmetry not used in FoFCou.
 Integral accuracy reduced to 1.0D-05 until final iterations.

 Cycle   1  Pass 0  IDiag  1:
 E= -40.9593235218971    
 DIIS: error= 5.27D-02 at cycle   1 NSaved=   1.
 NSaved= 1 IEnMin= 1 EnMin= -40.9593235218971     IErMin= 1 ErrMin= 5.27D-02
 ErrMax= 5.27D-02  0.00D+00 EMaxC= 1.00D-01 BMatC= 1.52D-01 BMatP= 1.52D-01
 IDIUse=3 WtCom= 4.73D-01 WtEn= 5.27D-01
 Coeff-Com:  0.100D+01
 Coeff-En:   0.100D+01
 Coeff:      0.100D+01
 Gap=     0.223 Goal=   None    Shift=    0.000
 Gap=     0.433 Goal=   None    Shift=    0.000
 GapD=    0.223 DampG=1.000 DampE=0.500 DampFc=0.5000 IDamp=-1.
 Damping current iteration by 5.00D-01
 RMSDP=1.43D-02 MaxDP=1.53D-01              OVMax= 1.40D-01

 Cycle   2  Pass 0  IDiag  1:
 E= -40.9816548450121     Delta-E=       -0.022331323115 Rises=F Damp=T
 DIIS: error= 9.28D-03 at cycle   2 NSaved=   2.
 NSaved= 2 IEnMin= 2 EnMin= -40.9816548450121     IErMin= 2 ErrMin= 9.28D-03
 ErrMax= 9.28D-03  0.00D+00 EMaxC= 1.00D-01 BMatC= 6.63D-03 BMatP= 1.52D-01
 IDIUse=3 WtCom= 9.07D-01 WtEn= 9.28D-02
 Coeff-Com: -0.641D-02 0.101D+01
 Coeff-En:   0.000D+00 0.100D+01
 Coeff:     -0.581D-02 0.101D+01
 Gap=     0.304 Goal=   None    Shift=    0.000
 Gap=     0.355 Goal=   None    Shift=    0.000
 RMSDP=2.19D-03 MaxDP=1.64D-02 DE=-2.23D-02 OVMax= 8.83D-02

 Cycle   3  Pass 0  IDiag  1:
 E= -41.0047108043192     Delta-E=       -0.023055959307 Rises=F Damp=F
 DIIS: error= 2.05D-03 at cycle   3 NSaved=   3.
 NSaved= 3 IEnMin= 3 EnMin= -41.0047108043192     IErMin= 3 ErrMin= 2.05D-03
 ErrMax= 2.05D-03  0.00D+00 EMaxC= 1.00D-01 BMatC= 2.06D-04 BMatP= 6.63D-03
 IDIUse=3 WtCom= 9.79D-01 WtEn= 2.05D-02
 Coeff-Com: -0.236D-01 0.685D-01 0.955D+00
 Coeff-En:   0.000D+00 0.000D+00 0.100D+01
 Coeff:     -0.231D-01 0.671D-01 0.956D+00
 Gap=     0.304 Goal=   None    Shift=    0.000
 Gap=     0.338 Goal=   None    Shift=    0.000
 RMSDP=3.42D-04 MaxDP=3.24D-03 DE=-2.31D-02 OVMax= 4.22D-03

 Cycle   4  Pass 0  IDiag  1:
 E= -41.0047981782215     Delta-E=       -0.000087373902 Rises=F Damp=F
 DIIS: error= 3.41D-04 at cycle   4 NSaved=   4.
 NSaved= 4 IEnMin= 4 EnMin= -41.0047981782215     IErMin= 4 ErrMin= 3.41D-04
 ErrMax= 3.41D-04  0.00D+00 EMaxC= 1.00D-01 BMatC= 1.02D-05 BMatP= 2.06D-04
 IDIUse=3 WtCom= 9.97D-01 WtEn= 3.41D-03
 Coeff-Com:  0.366D-02-0.262D-01-0.172D+00 0.119D+01
 Coeff-En:   0.000D+00 0.000D+00 0.000D+00 0.100D+01
 Coeff:      0.365D-02-0.261D-01-0.171D+00 0.119D+01
 Gap=     0.305 Goal=   None    Shift=    0.000
 Gap=     0.338 Goal=   None    Shift=    0.000
 RMSDP=1.40D-04 MaxDP=1.17D-03 DE=-8.74D-05 OVMax= 1.35D-03

 Cycle   5  Pass 0  IDiag  1:
 E= -41.0048059643930     Delta-E=       -0.000007786171 Rises=F Damp=F
 DIIS: error= 1.30D-04 at cycle   5 NSaved=   5.
 NSaved= 5 IEnMin= 5 EnMin= -41.0048059643930     IErMin= 5 ErrMin= 1.30D-04
 ErrMax= 1.30D-04  0.00D+00 EMaxC= 1.00D-01 BMatC= 8.29D-07 BMatP= 1.02D-05
 IDIUse=3 WtCom= 9.99D-01 WtEn= 1.30D-03
 Coeff-Com:  0.740D-03-0.100D-02-0.485D-01-0.692D-01 0.112D+01
 Coeff-En:   0.000D+00 0.000D+00 0.000D+00 0.000D+00 0.100D+01
 Coeff:      0.739D-03-0.100D-02-0.485D-01-0.691D-01 0.112D+01
 Gap=     0.305 Goal=   None    Shift=    0.000
 Gap=     0.338 Goal=   None    Shift=    0.000
 RMSDP=4.00D-05 MaxDP=3.15D-04 DE=-7.79D-06 OVMax= 4.79D-04

 Cycle   6  Pass 0  IDiag  1:
 E= -41.0048065300340     Delta-E=       -0.000000565641 Rises=F Damp=F
 DIIS: error= 6.31D-05 at cycle   6 NSaved=   6.
 NSaved= 6 IEnMin= 6 EnMin= -41.0048065300340     IErMin= 6 ErrMin= 6.31D-05
 ErrMax= 6.31D-05  0.00D+00 EMaxC= 1.00D-01 BMatC= 7.11D-08 BMatP= 8.29D-07
 IDIUse=1 WtCom= 1.00D+00 WtEn= 0.00D+00
 Coeff-Com: -0.176D-04 0.152D-02 0.156D-02-0.950D-01 0.234D+00 0.858D+00
 Coeff:     -0.176D-04 0.152D-02 0.156D-02-0.950D-01 0.234D+00 0.858D+00
 Gap=     0.305 Goal=   None    Shift=    0.000
 Gap=     0.338 Goal=   None    Shift=    0.000
 RMSDP=9.28D-06 MaxDP=9.61D-05 DE=-5.66D-07 OVMax= 1.82D-04

 Initial convergence to 1.0D-05 achieved.  Increase integral accuracy.
 Cycle   7  Pass 1  IDiag  1:
 E= -41.0048059210315     Delta-E=        0.000000609003 Rises=F Damp=F
 DIIS: error= 1.13D-05 at cycle   1 NSaved=   1.
 NSaved= 1 IEnMin= 1 EnMin= -41.0048059210315     IErMin= 1 ErrMin= 1.13D-05
 ErrMax= 1.13D-05  0.00D+00 EMaxC= 1.00D-01 BMatC= 2.51D-09 BMatP= 2.51D-09
 IDIUse=1 WtCom= 1.00D+00 WtEn= 0.00D+00
 Coeff-Com:  0.100D+01
 Coeff:      0.100D+01
 Gap=     0.305 Goal=   None    Shift=    0.000
 Gap=     0.338 Goal=   None    Shift=    0.000
 RMSDP=9.28D-06 MaxDP=9.61D-05 DE= 6.09D-07 OVMax= 3.99D-05

 Cycle   8  Pass 1  IDiag  1:
 E= -41.0048059223691     Delta-E=       -0.000000001338 Rises=F Damp=F
 DIIS: error= 5.98D-06 at cycle   2 NSaved=   2.
 NSaved= 2 IEnMin= 2 EnMin= -41.0048059223691     IErMin= 2 ErrMin= 5.98D-06
 ErrMax= 5.98D-06  0.00D+00 EMaxC= 1.00D-01 BMatC= 7.34D-10 BMatP= 2.51D-09
 IDIUse=1 WtCom= 1.00D+00 WtEn= 0.00D+00
 Coeff-Com:  0.278D+00 0.722D+00
 Coeff:      0.278D+00 0.722D+00
 Gap=     0.305 Goal=   None    Shift=    0.000
 Gap=     0.338 Goal=   None    Shift=    0.000
 RMSDP=7.67D-07 MaxDP=7.94D-06 DE=-1.34D-09 OVMax= 1.52D-05

 Cycle   9  Pass 1  IDiag  1:
 E= -41.0048059227005     Delta-E=       -0.000000000331 Rises=F Damp=F
 DIIS: error= 2.23D-06 at cycle   3 NSaved=   3.
 NSaved= 3 IEnMin= 3 EnMin= -41.0048059227005     IErMin= 3 ErrMin= 2.23D-06
 ErrMax= 2.23D-06  0.00D+00 EMaxC= 1.00D-01 BMatC= 1.39D-10 BMatP= 7.34D-10
 IDIUse=1 WtCom= 1.00D+00 WtEn= 0.00D+00
 Coeff-Com: -0.151D+00 0.686D-01 0.108D+01
 Coeff:     -0.151D+00 0.686D-01 0.108D+01
 Gap=     0.305 Goal=   None    Shift=    0.000
 Gap=     0.338 Goal=   None    Shift=    0.000
 RMSDP=4.97D-07 MaxDP=4.62D-06 DE=-3.31D-10 OVMax= 9.09D-06

 Cycle  10  Pass 1  IDiag  1:
 E= -41.0048059228063     Delta-E=       -0.000000000106 Rises=F Damp=F
 DIIS: error= 1.19D-06 at cycle   4 NSaved=   4.
 NSaved= 4 IEnMin= 4 EnMin= -41.0048059228063     IErMin= 4 ErrMin= 1.19D-06
 ErrMax= 1.19D-06  0.00D+00 EMaxC= 1.00D-01 BMatC= 3.63D-11 BMatP= 1.39D-10
 IDIUse=1 WtCom= 1.00D+00 WtEn= 0.00D+00
 Coeff-Com: -0.115D+00-0.117D+00 0.437D+00 0.795D+00
 Coeff:     -0.115D+00-0.117D+00 0.437D+00 0.795D+00
 Gap=     0.305 Goal=   None    Shift=    0.000
 Gap=     0.338 Goal=   None    Shift=    0.000
 RMSDP=2.32D-07 MaxDP=2.92D-06 DE=-1.06D-10 OVMax= 4.88D-06

 Cycle  11  Pass 1  IDiag  1:
 E= -41.0048059228283     Delta-E=       -0.000000000022 Rises=F Damp=F
 DIIS: error= 3.26D-07 at cycle   5 NSaved=   5.
 NSaved= 5 IEnMin= 5 EnMin= -41.0048059228283     IErMin= 5 ErrMin= 3.26D-07
 ErrMax= 3.26D-07  0.00D+00 EMaxC= 1.00D-01 BMatC= 1.51D-12 BMatP= 3.63D-11
 IDIUse=1 WtCom= 1.00D+00 WtEn= 0.00D+00
 Coeff-Com:  0.329D-01 0.250D-02-0.190D+00-0.919D-01 0.125D+01
 Coeff:      0.329D-01 0.250D-02-0.190D+00-0.919D-01 0.125D+01
 Gap=     0.305 Goal=   None    Shift=    0.000
 Gap=     0.338 Goal=   None    Shift=    0.000
 RMSDP=7.82D-08 MaxDP=9.30D-07 DE=-2.19D-11 OVMax= 1.76D-06

 Cycle  12  Pass 1  IDiag  1:
 E= -41.0048059228300     Delta-E=       -0.000000000002 Rises=F Damp=F
 DIIS: error= 3.63D-08 at cycle   6 NSaved=   6.
 NSaved= 6 IEnMin= 6 EnMin= -41.0048059228300     IErMin= 6 ErrMin= 3.63D-08
 ErrMax= 3.63D-08  0.00D+00 EMaxC= 1.00D-01 BMatC= 3.88D-14 BMatP= 1.51D-12
 IDIUse=1 WtCom= 1.00D+00 WtEn= 0.00D+00
 Coeff-Com:  0.401D-02 0.391D-02-0.127D-01-0.323D-01-0.190D-02 0.104D+01
 Coeff:      0.401D-02 0.391D-02-0.127D-01-0.323D-01-0.190D-02 0.104D+01
 Gap=     0.305 Goal=   None    Shift=    0.000
 Gap=     0.338 Goal=   None    Shift=    0.000
 RMSDP=9.46D-09 MaxDP=8.50D-08 DE=-1.71D-12 OVMax= 1.67D-07

 SCF Done:  E(UB3LYP) =  -41.0048059228     A.U. after   12 cycles
            NFock= 12  Conv=0.95D-08     -V/T= 2.0135
 <Sx>= 0.0000 <Sy>= 0.0000 <Sz>= 0.5000 <S**2>= 0.7538 S= 0.5019
 <L.S>= 0.000000000000E+00
 KE= 4.045940341408D+01 PE=-1.204034649558D+02 EE= 2.568418092448D+01
 Annihilation of the first spin contaminant:
 S**2 before annihilation     0.7538,   after     0.7500
 Leave Link  502 at Fri Aug 23 16:07:41 2019, MaxMem=  2684354560 cpu:         6.5
 (Enter /soft/gaussian/09-e.01/g09/l508.exe)
 QCSCF skips out because SCF is already converged.
 Leave Link  508 at Fri Aug 23 16:07:41 2019, MaxMem=  2684354560 cpu:         0.0
 (Enter /soft/gaussian/09-e.01/g09/l601.exe)
 Copying SCF densities to generalized density rwf, IOpCl= 1 IROHF=0.

 **********************************************************************

            Population analysis using the SCF density.

 **********************************************************************

 Orbital symmetries:
 Alpha Orbitals:
       Occupied  (A) (A) (A) (A) (A) (A)
       Virtual   (A) (A) (A) (A) (A) (A) (A) (A) (A) (A) (A) (A)
                 (A) (A) (A) (A) (A) (A) (A)
 Beta  Orbitals:
       Occupied  (A) (A) (A) (A) (A)
       Virtual   (A) (A) (A) (A) (A) (A) (A) (A) (A) (A) (A) (A)
                 (A) (A) (A) (A) (A) (A) (A) (A)
 The electronic state is 2-A.
 Alpha  occ. eigenvalues --  -10.19819  -0.68543  -0.42076  -0.41985  -0.40121
 Alpha  occ. eigenvalues --   -0.22862
 Alpha virt. eigenvalues --    0.07637   0.11217   0.17681   0.17896   0.53872
 Alpha virt. eigenvalues --    0.54447   0.54518   0.62445   0.76989   0.90382
 Alpha virt. eigenvalues --    0.91056   0.95415   1.11041   1.64498   1.64571
 Alpha virt. eigenvalues --    2.00357   2.16846   2.18832   4.08495
  Beta  occ. eigenvalues --  -10.18427  -0.64537  -0.41125  -0.41048  -0.39870
  Beta virt. eigenvalues --   -0.06036   0.08715   0.12834   0.18236   0.18443
  Beta virt. eigenvalues --    0.54686   0.55274   0.59797   0.65259   0.78729
  Beta virt. eigenvalues --    0.90865   0.91544   0.97890   1.11711   1.71516
  Beta virt. eigenvalues --    1.71601   2.08862   2.17976   2.19952   4.12192
          Condensed to atoms (all electrons):
               1          2          3          4          5          6
     1  C    5.338625   0.378762   0.379962   0.379979   0.013061  -0.004327
     2  H    0.378762   0.513000  -0.028888  -0.028884   0.000086   0.000020
     3  H    0.379962  -0.028888   0.510959  -0.030176   0.000069   0.000029
     4  H    0.379979  -0.028884  -0.030176   0.510991   0.000056   0.000033
     5  H    0.013061   0.000086   0.000069   0.000056   0.612565   0.368737
     6  H   -0.004327   0.000020   0.000029   0.000033   0.368737   0.656819
          Atomic-Atomic Spin Densities.
               1          2          3          4          5          6
     1  C    1.150926  -0.008783  -0.009080  -0.009074   0.011162  -0.004727
     2  H   -0.008783  -0.044085   0.000920   0.000919  -0.000043   0.000011
     3  H   -0.009080   0.000920  -0.043327   0.000982  -0.000045   0.000009
     4  H   -0.009074   0.000919   0.000982  -0.043336  -0.000043   0.000009
     5  H    0.011162  -0.000043  -0.000045  -0.000043  -0.011475  -0.008642
     6  H   -0.004727   0.000011   0.000009   0.000009  -0.008642   0.044147
 Mulliken charges and spin densities:
               1          2
     1  C   -0.486062   1.130424
     2  H    0.165904  -0.051061
     3  H    0.168044  -0.050540
     4  H    0.168001  -0.050544
     5  H    0.005426  -0.009087
     6  H   -0.021312   0.030808
 Sum of Mulliken charges =  -0.00000   1.00000
 Mulliken charges and spin densities with hydrogens summed into heavy atoms:
               1          2
     1  C   -0.000000   1.000000
 Electronic spatial extent (au):  <R**2>=             93.1089
 Charge=             -0.0000 electrons
 Dipole moment (field-independent basis, Debye):
    X=              0.3282    Y=             -0.0048    Z=             -0.0012  Tot=              0.3283
 Quadrupole moment (field-independent basis, Debye-Ang):
   XX=            -10.8269   YY=             -9.1517   ZZ=             -9.2003
   XY=             -0.0342   XZ=              0.0241   YZ=              0.0001
 Traceless Quadrupole moment (field-independent basis, Debye-Ang):
   XX=             -1.1006   YY=              0.5746   ZZ=              0.5260
   XY=             -0.0342   XZ=              0.0241   YZ=              0.0001
 Octapole moment (field-independent basis, Debye-Ang**2):
  XXX=              0.5459  YYY=              0.8235  ZZZ=              0.0115  XYY=              1.7857
  XXY=             -0.0449  XXZ=              0.0207  XZZ=              1.7870  YZZ=             -0.8287
  YYZ=             -0.0254  XYZ=             -0.0111
 Hexadecapole moment (field-independent basis, Debye-Ang**3):
 XXXX=           -102.2247 YYYY=            -16.0885 ZZZZ=            -15.9485 XXXY=             -0.1056
 XXXZ=              0.0639 YYYX=              0.4101 YYYZ=             -0.0010 ZZZX=              0.0693
 ZZZY=              0.0037 XXYY=            -22.0044 XXZZ=            -21.9386 YYZZ=             -5.3486
 XXYZ=             -0.0134 YYXZ=              0.0060 ZZXY=             -0.5187
 N-N= 1.325507469440D+01 E-N=-1.204034647622D+02  KE= 4.045940341408D+01
                          Isotropic Fermi Contact Couplings
        Atom                 a.u.       MegaHertz       Gauss      10(-4) cm-1
     1  C(13)              0.10892     122.44194      43.69033      40.84223
     2  H(1)              -0.01573     -70.32110     -25.09232     -23.45659
     3  H(1)              -0.01554     -69.46915     -24.78832     -23.17242
     4  H(1)              -0.01554     -69.46401     -24.78649     -23.17070
     5  H(1)              -0.00324     -14.50209      -5.17471      -4.83738
     6  H(1)               0.00961      42.96927      15.33250      14.33301
 --------------------------------------------------------
       Center         ----  Spin Dipole Couplings  ----
                      3XX-RR        3YY-RR        3ZZ-RR
 --------------------------------------------------------
     1   Atom        1.077264     -0.538291     -0.538973
     2   Atom       -0.006455      0.076562     -0.070107
     3   Atom       -0.005424     -0.032942      0.038366
     4   Atom       -0.005269     -0.035271      0.040540
     5   Atom        0.027788     -0.013899     -0.013889
     6   Atom        0.006062     -0.003032     -0.003030
 --------------------------------------------------------
                        XY            XZ            YZ
 --------------------------------------------------------
     1   Atom        0.028291     -0.022886     -0.000403
     2   Atom        0.000492     -0.000894     -0.001316
     3   Atom        0.000388     -0.002248      0.065720
     4   Atom       -0.001388      0.003524     -0.064398
     5   Atom       -0.000041      0.000023     -0.000002
     6   Atom       -0.000006      0.000001     -0.000000
 --------------------------------------------------------


 ---------------------------------------------------------------------------------
              Anisotropic Spin Dipole Couplings in Principal Axis System
 ---------------------------------------------------------------------------------

       Atom             a.u.   MegaHertz   Gauss  10(-4) cm-1        Axes

              Baa    -0.5393   -72.368   -25.823   -24.140  0.0141  0.0042  0.9999
     1 C(13)  Bbb    -0.5388   -72.300   -25.798   -24.117 -0.0176  0.9998 -0.0040
              Bcc     1.0781   144.668    51.621    48.256  0.9997  0.0175 -0.0142
 
              Baa    -0.0701   -37.419   -13.352   -12.482  0.0140  0.0089  0.9999
     2 H(1)   Bbb    -0.0064    -3.439    -1.227    -1.147  0.9999 -0.0061 -0.0139
              Bcc     0.0766    40.858    14.579    13.629  0.0060  0.9999 -0.0090
 
              Baa    -0.0721   -38.464   -13.725   -12.830 -0.0222  0.8590 -0.5115
     3 H(1)   Bbb    -0.0054    -2.896    -1.033    -0.966  0.9995  0.0298  0.0066
              Bcc     0.0775    41.360    14.758    13.796 -0.0209  0.5111  0.8592
 
              Baa    -0.0721   -38.467   -13.726   -12.831 -0.0082  0.8680  0.4965
     4 H(1)   Bbb    -0.0054    -2.899    -1.035    -0.967  0.9989  0.0295 -0.0352
              Bcc     0.0775    41.366    14.761    13.798  0.0452 -0.4957  0.8673
 
              Baa    -0.0139    -7.416    -2.646    -2.474  0.0009  0.9852  0.1715
     5 H(1)   Bbb    -0.0139    -7.411    -2.644    -2.472 -0.0007 -0.1715  0.9852
              Bcc     0.0278    14.826     5.290     4.946  1.0000 -0.0010  0.0006
 
              Baa    -0.0030    -1.618    -0.577    -0.540  0.0007  0.9878  0.1557
     6 H(1)   Bbb    -0.0030    -1.616    -0.577    -0.539 -0.0003 -0.1557  0.9878
              Bcc     0.0061     3.234     1.154     1.079  1.0000 -0.0007  0.0002
 

 ---------------------------------------------------------------------------------

 No NMR shielding tensors so no spin-rotation constants.
 Leave Link  601 at Fri Aug 23 16:07:41 2019, MaxMem=  2684354560 cpu:         3.1
 (Enter /soft/gaussian/09-e.01/g09/l701.exe)
 Compute integral first derivatives.
 ... and contract with generalized density number  0.
 Leave Link  701 at Fri Aug 23 16:07:41 2019, MaxMem=  2684354560 cpu:         1.6
 (Enter /soft/gaussian/09-e.01/g09/l702.exe)
 L702 exits ... SP integral derivatives will be done elsewhere.
 Leave Link  702 at Fri Aug 23 16:07:41 2019, MaxMem=  2684354560 cpu:         0.2
 (Enter /soft/gaussian/09-e.01/g09/l703.exe)
 Compute integral first derivatives, UseDBF=F ICtDFT=           0.
 Integral derivatives from FoFJK, PRISM(SPDF).
 Calling FoFJK, ICntrl=      2127 FMM=F ISym2X=0 I1Cent= 0 IOpClX= 1 NMat=1 NMatS=1 NMatT=0.
 FoFJK:  IHMeth= 1 ICntrl=    2127 DoSepK=F KAlg= 0 I1Cent=   0 FoldK=F
 IRaf=         0 NMat=   1 IRICut=       1 DoRegI=T DoRafI=F ISym2E= 0.
 FoFCou: FMM=F IPFlag=           0 FMFlag=      100000 FMFlg1=         800
         NFxFlg=           0 DoJE=F BraDBF=F KetDBF=F FulRan=T
         wScrn=  0.000000 ICntrl=    2127 IOpCl=  1 I1Cent=           0 NGrid=           0
         NMat0=    1 NMatS0=      1 NMatT0=    0 NMatD0=    1 NMtDS0=    0 NMtDT0=    0
 Symmetry not used in FoFCou.
 Leave Link  703 at Fri Aug 23 16:07:41 2019, MaxMem=  2684354560 cpu:         2.3
 (Enter /soft/gaussian/09-e.01/g09/l716.exe)
 Dipole        = 1.29130415D-01-1.88834052D-03-4.54160709D-04
 ***** Axes restored to original set *****
 -------------------------------------------------------------------
 Center     Atomic                   Forces (Hartrees/Bohr)
 Number     Number              X              Y              Z
 -------------------------------------------------------------------
      1        6           0.000056413    0.000395547    0.008812308
      2        1           0.000004305   -0.000084126   -0.009043693
      3        1           0.001557310   -0.000003130    0.000138843
      4        1          -0.001615984   -0.000099394    0.000100517
      5        1          -0.001328526    0.062982407   -0.000098522
      6        1           0.001326482   -0.063191304    0.000090547
 -------------------------------------------------------------------
 Cartesian Forces:  Max     0.063191304 RMS     0.021250039
 -----------------------------------------------------------------------------------------------
                       Internal Coordinate Forces (Hartree/Bohr or radian)
  Cent   Atom   N1       Length/X         N2         Alpha/Y        N3         Beta/Z          J
 -----------------------------------------------------------------------------------------------
      1  C 
      2  H        1  -0.009044(     1)
      3  H        1   0.001276(     2)      2  -0.001847(     7)
      4  H        1   0.001348(     3)      2  -0.001842(     8)      3   0.000034(    12)     0
      5  H        1  -0.000209(     4)      2   0.000055(     9)      3  -0.000039(    13)     0
         X        5   0.000000(     5)      1  -0.000009(    10)      2   0.000000(    14)     0
      6  H        5  -0.063205(     6)      6  -0.000009(    11)      1   0.000003(    15)     0
 -----------------------------------------------------------------------------------------------
 Internal  Forces:  Max     0.063205290 RMS     0.016506556
 Force constants in Cartesian coordinates: 
                1             2             3             4             5 
      1  0.721290D+00
      2  0.188470D-01  0.227462D+00
      3 -0.817461D-04  0.111324D-01  0.710977D+00
      4 -0.112623D+00 -0.204803D-02  0.268601D-03  0.745455D-01
      5 -0.204849D-02 -0.690236D-01 -0.121845D-01  0.142657D-02  0.478504D-01
      6  0.000000D+00  0.000000D+00 -0.341509D+00  0.000000D+00  0.000000D+00
      7 -0.296369D+00 -0.116738D-02  0.105988D+00  0.190656D-01 -0.187753D-03
      8 -0.118372D-01 -0.706811D-01  0.421918D-02 -0.374657D-03  0.104986D-01
      9  0.106853D+00 -0.200387D-02 -0.176683D+00  0.327273D-01 -0.322288D-03
     10 -0.296084D+00 -0.156268D-01 -0.106035D+00  0.189818D-01  0.811140D-03
     11 -0.496693D-02 -0.712850D-01 -0.316660D-02  0.997524D-03  0.105873D-01
     12 -0.106624D+00 -0.944508D-02 -0.176832D+00 -0.326181D-01 -0.272158D-02
     13 -0.351051D-01 -0.473351D-03 -0.139002D-03  0.305178D-04 -0.146646D-05
     14 -0.391458D-03 -0.164823D-01 -0.291023D-04 -0.140870D-05  0.872486D-04
     15 -0.145354D-03  0.208283D-03 -0.348540D-01 -0.377820D-03  0.152284D-01
     16  0.188917D-01  0.468528D-03  0.000000D+00  0.000000D+00  0.000000D+00
     17  0.397074D-03  0.100119D-04  0.286236D-04  0.000000D+00  0.000000D+00
     18 -0.235189D-05  0.108279D-03  0.189013D-01  0.000000D+00  0.000000D+00
                6             7             8             9            10 
      6  0.341509D+00
      7  0.000000D+00  0.287151D+00
      8  0.000000D+00  0.869742D-03  0.491692D-01
      9  0.000000D+00 -0.122676D+00  0.149296D-02  0.148037D+00
     10  0.000000D+00 -0.973834D-02 -0.199308D-02 -0.167164D-01  0.286052D+00
     11  0.000000D+00  0.487640D-03  0.107271D-01  0.837063D-03  0.167866D-01
     12  0.000000D+00  0.166084D-01  0.206099D-02  0.285093D-01  0.122307D+00
     13  0.000000D+00 -0.109360D-03  0.133352D-01 -0.187723D-03  0.788360D-03
     14  0.000000D+00 -0.225318D-05  0.286172D-03 -0.386771D-05  0.220954D-04
     15  0.000000D+00  0.800902D-04 -0.777313D-02  0.137480D-03  0.443717D-03
     16  0.000000D+00  0.000000D+00  0.000000D+00  0.000000D+00  0.000000D+00
     17  0.000000D+00  0.000000D+00  0.000000D+00  0.000000D+00  0.000000D+00
     18  0.000000D+00  0.000000D+00  0.000000D+00  0.000000D+00  0.000000D+00
               11            12            13            14            15 
     11  0.503451D-01
     12  0.100963D-01  0.148104D+00
     13 -0.133049D-01  0.325788D-03  0.110849D+00
     14 -0.374491D-03  0.933175D-05 -0.315920D-02  0.264314D+00
     15 -0.776680D-02  0.218414D-03  0.483321D-05 -0.156494D-03  0.110878D+00
     16  0.000000D+00  0.000000D+00 -0.764537D-01  0.353222D-02 -0.546619D-05
     17  0.000000D+00  0.000000D+00  0.360368D-02 -0.247831D+00  0.259788D-03
     18  0.000000D+00  0.000000D+00 -0.389689D-05  0.180132D-03 -0.763796D-01
               16            17            18 
     16  0.575620D-01
     17 -0.400075D-02  0.247821D+00
     18  0.624877D-05 -0.288412D-03  0.574783D-01
 Force constants in internal coordinates: 
                1             2             3             4             5 
      1  0.341509D+00
      2  0.000000D+00  0.358617D+00
      3  0.000000D+00  0.000000D+00  0.358738D+00
      4  0.000000D+00  0.000000D+00  0.000000D+00  0.164740D-01
      5  0.000000D+00  0.000000D+00  0.000000D+00  0.000000D+00  0.000000D+00
      6  0.000000D+00  0.000000D+00  0.000000D+00  0.000000D+00  0.000000D+00
      7  0.000000D+00  0.000000D+00  0.000000D+00  0.000000D+00  0.000000D+00
      8  0.000000D+00  0.000000D+00  0.000000D+00  0.000000D+00  0.000000D+00
      9  0.000000D+00  0.000000D+00  0.000000D+00  0.000000D+00  0.000000D+00
     10  0.000000D+00  0.000000D+00  0.000000D+00  0.000000D+00  0.000000D+00
     11  0.000000D+00  0.000000D+00  0.000000D+00  0.000000D+00  0.000000D+00
     12  0.000000D+00  0.000000D+00  0.000000D+00  0.000000D+00  0.000000D+00
     13  0.000000D+00  0.000000D+00  0.000000D+00  0.000000D+00  0.000000D+00
     14  0.000000D+00  0.000000D+00  0.000000D+00  0.000000D+00  0.000000D+00
     15  0.000000D+00  0.000000D+00  0.000000D+00  0.000000D+00  0.000000D+00
                6             7             8             9            10 
      6  0.247906D+00
      7  0.000000D+00  0.319587D+00
      8  0.000000D+00  0.159364D+00  0.319679D+00
      9  0.000000D+00  0.164920D-02  0.261990D-02  0.241471D+00
     10  0.000000D+00  0.000000D+00  0.000000D+00  0.124718D-05  0.159998D+00
     11  0.000000D+00  0.000000D+00  0.000000D+00  0.124721D-05  0.159999D+00
     12  0.000000D+00 -0.860168D-02 -0.457634D-02  0.696582D-01  0.000000D+00
     13  0.000000D+00  0.225229D-02 -0.390931D-02 -0.402793D-04 -0.230276D-05
     14  0.000000D+00  0.000000D+00  0.000000D+00  0.000000D+00 -0.604844D-03
     15  0.000000D+00  0.000000D+00  0.000000D+00  0.113482D-05 -0.306918D-05
               11            12            13            14            15 
     11  0.160000D+00
     12  0.000000D+00  0.153149D+00
     13 -0.230281D-05 -0.119389D+00  0.239058D+00
     14 -0.604860D-03  0.000000D+00  0.000000D+00  0.512910D-05
     15  0.000000D+00  0.000000D+00 -0.229247D-05 -0.674383D-03  0.159998D+00
 Leave Link  716 at Fri Aug 23 16:07:41 2019, MaxMem=  2684354560 cpu:         0.3
 (Enter /soft/gaussian/09-e.01/g09/l103.exe)

 GradGradGradGradGradGradGradGradGradGradGradGradGradGradGradGradGradGrad
 Berny optimization.
 Search for a local minimum.
 Step number   1 out of a maximum of   25
 All quantities printed in internal units (Hartrees-Bohrs-Radians)
 Second derivative matrix not updated -- first step.
 The second derivative matrix:
                          R1        R2        A2        R3        A3
           R1           0.34151
           R2           0.00000   0.35862
           A2          -0.00000  -0.00000   0.31959
           R3          -0.00000  -0.00000   0.00000   0.35874
           A3           0.00000  -0.00000   0.15936  -0.00000   0.31968
           D3          -0.00000   0.00000  -0.00860  -0.00000  -0.00458
           R4          -0.00000   0.00000   0.00000   0.00000   0.00000
           A4           0.00000   0.00000   0.00165  -0.00000   0.00262
           D4          -0.00000   0.00000   0.00225   0.00000  -0.00391
           D6           0.00000   0.00000   0.00000  -0.00000   0.00000
           A6           0.00000   0.00000   0.00000   0.00000   0.00000
           R5          -0.00000  -0.00000  -0.00000  -0.00000  -0.00000
           A5           0.00000   0.00000   0.00000   0.00000   0.00000
           D5          -0.00000  -0.00000  -0.00000  -0.00000  -0.00000
           R6          -0.00000   0.00000  -0.00000   0.00000  -0.00000
                          D3        R4        A4        D4        D6
           D3           0.15315
           R4           0.00000   0.01647
           A4           0.06966   0.00000   0.24147
           D4          -0.11939   0.00000  -0.00004   0.23906
           D6           0.00000   0.00000   0.00000  -0.00000   0.16000
           A6           0.00000  -0.00000   0.00000  -0.00000  -0.00000
           R5          -0.00000   0.00000  -0.00000  -0.00000  -0.00000
           A5           0.00000  -0.00000   0.00000  -0.00000  -0.00000
           D5          -0.00000  -0.00000  -0.00000   0.00000  -0.00067
           R6          -0.00000  -0.00000  -0.00000  -0.00000  -0.00000
                          A6        R5        A5        D5        R6
           A6           0.16000
           R5           0.00000   0.00000
           A5           0.16000   0.00000   0.16000
           D5          -0.00060  -0.00000  -0.00060   0.00001
           R6           0.00000  -0.00000  -0.00000  -0.00000   0.24791
 ITU=  0
     Eigenvalues ---    0.01647   0.05139   0.16000   0.16000   0.16010
     Eigenvalues ---    0.24083   0.34133   0.34151   0.35862   0.35874
     Eigenvalues ---    0.479291000.000001000.000001000.000001000.00000
 RFO step:  Lambda=-2.65781660D-04 EMin= 1.64739968D-02
 Linear search not attempted -- first point.
 Variable       Old X    -DE/DX   Delta X   Delta X   Delta X     New X
                                 (Linear)    (Quad)   (Total)
    R1        2.07076  -0.00904   0.00000  -0.02646  -0.02646   2.04430
    R2        2.04298   0.00128   0.00000   0.00355   0.00355   2.04654
    A2        2.09829  -0.00185   0.00000  -0.00387  -0.00387   2.09442
    R3        2.04279   0.00135   0.00000   0.00376   0.00376   2.04655
    A3        2.09834  -0.00184   0.00000  -0.00385  -0.00385   2.09448
    D3        3.06817   0.00003   0.00000  -0.00082  -0.00082   3.06735
    R4        5.07354  -0.00021   0.00000  -0.01247  -0.01247   5.06107
    A4        1.57653   0.00006   0.00000   0.00053   0.00053   1.57706
    D4        4.68759  -0.00004   0.00000  -0.00060  -0.00060   4.68699
    D6        3.13781   0.00000   0.00000   0.00002   0.00002   3.13783
    A6        1.57501  -0.00001   0.00000  -0.00005  -0.00005   1.57496
    R5        1.88973   0.00000   0.00000   0.00000   0.00000   1.88973
    A5        1.57080  -0.00001   0.00000   0.00000   0.00000   1.57080
    D5        3.14159   0.00000   0.00000   0.00000   0.00000   3.14159
    R6        1.66844  -0.06321   0.00000   0.00000   0.00000   1.66844
         Item               Value     Threshold  Converged?
 Maximum Force            0.009044     0.000450     NO 
 RMS     Force            0.002893     0.000300     NO 
 Maximum Displacement     0.026461     0.001800     NO 
 RMS     Displacement     0.007804     0.001200     NO 
 Predicted change in Energy=-1.330123D-04
 Lowest energy point so far.  Saving SCF results.
 GradGradGradGradGradGradGradGradGradGradGradGradGradGradGradGradGradGrad

 Leave Link  103 at Fri Aug 23 16:07:41 2019, MaxMem=  2684354560 cpu:         0.3
 (Enter /soft/gaussian/09-e.01/g09/l202.exe)
 ---------------------------------------------------------------------------------------------------
                            Z-MATRIX (ANGSTROMS AND DEGREES)
   CD    Cent   Atom    N1       Length/X        N2       Alpha/Y        N3        Beta/Z          J
 ---------------------------------------------------------------------------------------------------
      1      1  C 
      2      2  H        1   1.081797(     1)
      3      3  H        1   1.082981(     2)      2  120.001(     7)
      4      4  H        1   1.082987(     3)      2  120.005(     8)      3  175.746(    12)      0
      5      5  H        1   2.678202(     4)      2   90.359(     9)      3  268.545(    13)      0
      6         X        5   1.000000(     5)      1   90.000(    10)      2  180.000(    14)      0
      7      6  H        5   0.882900(     6)      6   90.238(    11)      1  179.784(    15)      0
 ---------------------------------------------------------------------------------------------------
                         Z-Matrix orientation:                         
 ---------------------------------------------------------------------
 Center     Atomic      Atomic             Coordinates (Angstroms)
 Number     Number       Type             X           Y           Z
 ---------------------------------------------------------------------
      1          6           0        0.000000    0.000000    0.000000
      2          1           0        0.000000    0.000000    1.081797
      3          1           0        0.937876    0.000000   -0.541513
      4          1           0       -0.935263   -0.069563   -0.541578
      5          1           0       -0.068002    2.677286   -0.016769
      6         -1           0       -0.067843    2.671026   -1.016750
      7          1           0       -0.087099    3.559977   -0.018624
 ---------------------------------------------------------------------
                    Distance matrix (angstroms):
                    1          2          3          4          5
     1  C    0.000000
     2  H    1.081797   0.000000
     3  H    1.082981   1.874766   0.000000
     4  H    1.082987   1.874807   1.874430   0.000000
     5  H    2.678202   2.894707   2.907749   2.927925   0.000000
     6  X    2.858805   3.397482   2.893389   2.913595   1.000000
     7  H    3.561091   3.727191   3.741313   3.763831   0.882900
                    6          7
     6  X    0.000000
     7  H    1.336735   0.000000
 Stoichiometry    CH5(2)
 Framework group  C1[X(CH5)]
 Deg. of freedom    12
 Full point group                 C1      NOp   1
 RotChk:  IX=0 Diff= 5.30D-01
 Largest Abelian subgroup         C1      NOp   1
 Largest concise Abelian subgroup C1      NOp   1
                         Standard orientation:                         
 ---------------------------------------------------------------------
 Center     Atomic      Atomic             Coordinates (Angstroms)
 Number     Number       Type             X           Y           Z
 ---------------------------------------------------------------------
      1          6           0        0.560879    0.000919   -0.001208
      2          1           0        0.564793    1.003144   -0.408413
      3          1           0        0.580809   -0.853773   -0.666002
      4          1           0        0.606636   -0.148417    1.070458
      5          1           0       -2.117307   -0.003570    0.006553
      6          1           0       -3.000205   -0.002897    0.004650
 ---------------------------------------------------------------------
 Rotational constants (GHZ):    142.7182765     25.8997582     25.8984680
 Leave Link  202 at Fri Aug 23 16:07:41 2019, MaxMem=  2684354560 cpu:         0.1
 (Enter /soft/gaussian/09-e.01/g09/l301.exe)
 Standard basis: 6-31G(d) (6D, 7F)
 Ernie: Thresh=  0.10000D-02 Tol=  0.10000D-05 Strict=F.
 There are    25 symmetry adapted cartesian basis functions of A   symmetry.
 There are    25 symmetry adapted basis functions of A   symmetry.
    25 basis functions,    48 primitive gaussians,    25 cartesian basis functions
     6 alpha electrons        5 beta electrons
       nuclear repulsion energy        13.2913950079 Hartrees.
 IExCor=  402 DFT=T Ex+Corr=B3LYP ExCW=0 ScaHFX=  0.200000
 ScaDFX=  0.800000  0.720000  1.000000  0.810000 ScalE2=  1.000000  1.000000
 IRadAn=      5 IRanWt=     -1 IRanGd=            0 ICorTp=0 IEmpDi=  4
 NAtoms=    6 NActive=    6 NUniq=    6 SFac= 1.00D+00 NAtFMM=   60 NAOKFM=F Big=F
 Integral buffers will be    131072 words long.
 Raffenetti 2 integral format.
 Two-electron integral symmetry is turned on.
 Leave Link  301 at Fri Aug 23 16:07:42 2019, MaxMem=  2684354560 cpu:         0.5
 (Enter /soft/gaussian/09-e.01/g09/l302.exe)
 NPDir=0 NMtPBC=     1 NCelOv=     1 NCel=       1 NClECP=     1 NCelD=      1
         NCelK=      1 NCelE2=     1 NClLst=     1 CellRange=     0.0.
 One-electron integrals computed using PRISM.
 NBasis=    25 RedAO= T EigKep=  2.66D-02  NBF=    25
 NBsUse=    25 1.00D-06 EigRej= -1.00D+00 NBFU=    25
 Precomputing XC quadrature grid using
 IXCGrd= 4 IRadAn=           5 IRanWt=          -1 IRanGd=           0 AccXCQ= 0.00D+00.
 Generated NRdTot=       0 NPtTot=           0 NUsed=           0 NTot=          32
 NSgBfM=    25    25    25    25    25 MxSgAt=     6 MxSgA2=     6.
 Leave Link  302 at Fri Aug 23 16:07:42 2019, MaxMem=  2684354560 cpu:         1.7
 (Enter /soft/gaussian/09-e.01/g09/l303.exe)
 DipDrv:  MaxL=1.
 Leave Link  303 at Fri Aug 23 16:07:42 2019, MaxMem=  2684354560 cpu:         0.2
 (Enter /soft/gaussian/09-e.01/g09/l401.exe)
 Initial guess from the checkpoint file:  "/blues/gpfs/home/elliott/Packages/PACC/moldriver/rcdriver/rundir/RXN/CH3.H2/MDUSDFXREFXETQ/0_0/2_1/UHFFFAOYSA-N/CH4.H/HXBDELFRWIQQII/0_0/1_2/UHFFFAOYSA-N/2/ezvlpJU/SCANS/R6/01/RUN/OPTI/A03/Gau-38720.chk"
 B after Tr=     0.000000    0.000000   -0.000000
         Rot=    0.982294    0.187346    0.000007   -0.000018 Ang=  21.60 deg.
 Guess basis will be translated and rotated to current coordinates.
 JPrj=2 DoOrth=T DoCkMO=T.
 Initial guess <Sx>= 0.0000 <Sy>= 0.0000 <Sz>= 0.5000 <S**2>= 0.7538 S= 0.5019
 Generating alternative initial guess.
 ExpMin= 1.61D-01 ExpMax= 3.05D+03 ExpMxC= 4.57D+02 IAcc=2 IRadAn=         4 AccDes= 0.00D+00
 Harris functional with IExCor=  402 and IRadAn=       4 diagonalized for initial guess.
 HarFok:  IExCor=  402 AccDes= 0.00D+00 IRadAn=         4 IDoV= 1 UseB2=F ITyADJ=14
 ICtDFT=  3500011 ScaDFX=  1.000000  1.000000  1.000000  1.000000
 FoFCou: FMM=F IPFlag=           0 FMFlag=      100000 FMFlg1=           0
         NFxFlg=           0 DoJE=T BraDBF=F KetDBF=T FulRan=T
         wScrn=  0.000000 ICntrl=     500 IOpCl=  0 I1Cent=   200000004 NGrid=           0
         NMat0=    1 NMatS0=      1 NMatT0=    0 NMatD0=    1 NMtDS0=    0 NMtDT0=    0
 Petite list used in FoFCou.
 Harris En= -40.9980737760599    
 Leave Link  401 at Fri Aug 23 16:07:42 2019, MaxMem=  2684354560 cpu:         2.2
 (Enter /soft/gaussian/09-e.01/g09/l502.exe)
 UHF open shell SCF:
 Using DIIS extrapolation, IDIIS=  1040.
 Integral symmetry usage will be decided dynamically.
 Keep R1 and R2 ints in memory in canonical form, NReq=976418.
 IVT=        8268 IEndB=        8268 NGot=  2684354560 MDV=  2684240343
 LenX=  2684240343 LenY=  2684239277
 Requested convergence on RMS density matrix=1.00D-08 within  64 cycles.
 Requested convergence on MAX density matrix=1.00D-06.
 Requested convergence on             energy=1.00D-06.
 No special actions if energy rises.
 FoFCou: FMM=F IPFlag=           0 FMFlag=           0 FMFlg1=           0
         NFxFlg=           0 DoJE=F BraDBF=F KetDBF=F FulRan=T
         wScrn=  0.000000 ICntrl=     600 IOpCl=  0 I1Cent=           0 NGrid=           0
         NMat0=    1 NMatS0=    325 NMatT0=    0 NMatD0=    1 NMtDS0=    0 NMtDT0=    0
 Symmetry not used in FoFCou.
 Integral accuracy reduced to 1.0D-05 until final iterations.

 Cycle   1  Pass 0  IDiag  1:
 E= -41.0049032523698    
 DIIS: error= 6.74D-04 at cycle   1 NSaved=   1.
 NSaved= 1 IEnMin= 1 EnMin= -41.0049032523698     IErMin= 1 ErrMin= 6.74D-04
 ErrMax= 6.74D-04  0.00D+00 EMaxC= 1.00D-01 BMatC= 7.98D-05 BMatP= 7.98D-05
 IDIUse=3 WtCom= 9.93D-01 WtEn= 6.74D-03
 Coeff-Com:  0.100D+01
 Coeff-En:   0.100D+01
 Coeff:      0.100D+01
 Gap=     2.707 Goal=   None    Shift=    0.000
 Gap=     2.562 Goal=   None    Shift=    0.000
 RMSDP=2.41D-04 MaxDP=1.66D-03              OVMax= 3.51D-03

 Cycle   2  Pass 0  IDiag  1:
 E= -41.0049299397152     Delta-E=       -0.000026687345 Rises=F Damp=F
 DIIS: error= 3.69D-04 at cycle   2 NSaved=   2.
 NSaved= 2 IEnMin= 2 EnMin= -41.0049299397152     IErMin= 2 ErrMin= 3.69D-04
 ErrMax= 3.69D-04  0.00D+00 EMaxC= 1.00D-01 BMatC= 1.26D-05 BMatP= 7.98D-05
 IDIUse=3 WtCom= 9.96D-01 WtEn= 3.69D-03
 Coeff-Com:  0.236D+00 0.764D+00
 Coeff-En:   0.000D+00 0.100D+01
 Coeff:      0.236D+00 0.764D+00
 Gap=     0.305 Goal=   None    Shift=    0.000
 Gap=     0.339 Goal=   None    Shift=    0.000
 RMSDP=8.99D-05 MaxDP=1.09D-03 DE=-2.67D-05 OVMax= 1.04D-03

 Cycle   3  Pass 0  IDiag  1:
 E= -41.0049325579331     Delta-E=       -0.000002618218 Rises=F Damp=F
 DIIS: error= 2.15D-04 at cycle   3 NSaved=   3.
 NSaved= 3 IEnMin= 3 EnMin= -41.0049325579331     IErMin= 3 ErrMin= 2.15D-04
 ErrMax= 2.15D-04  0.00D+00 EMaxC= 1.00D-01 BMatC= 2.68D-06 BMatP= 1.26D-05
 IDIUse=3 WtCom= 9.98D-01 WtEn= 2.15D-03
 Coeff-Com:  0.374D-01 0.323D+00 0.640D+00
 Coeff-En:   0.000D+00 0.761D-01 0.924D+00
 Coeff:      0.373D-01 0.322D+00 0.641D+00
 Gap=     0.305 Goal=   None    Shift=    0.000
 Gap=     0.338 Goal=   None    Shift=    0.000
 RMSDP=3.15D-05 MaxDP=3.41D-04 DE=-2.62D-06 OVMax= 3.23D-04

 Cycle   4  Pass 0  IDiag  1:
 E= -41.0049332534164     Delta-E=       -0.000000695483 Rises=F Damp=F
 DIIS: error= 2.49D-05 at cycle   4 NSaved=   4.
 NSaved= 4 IEnMin= 4 EnMin= -41.0049332534164     IErMin= 4 ErrMin= 2.49D-05
 ErrMax= 2.49D-05  0.00D+00 EMaxC= 1.00D-01 BMatC= 5.42D-08 BMatP= 2.68D-06
 IDIUse=1 WtCom= 1.00D+00 WtEn= 0.00D+00
 Coeff-Com: -0.535D-02 0.292D-01 0.157D+00 0.819D+00
 Coeff:     -0.535D-02 0.292D-01 0.157D+00 0.819D+00
 Gap=     0.305 Goal=   None    Shift=    0.000
 Gap=     0.338 Goal=   None    Shift=    0.000
 RMSDP=5.75D-06 MaxDP=6.51D-05 DE=-6.95D-07 OVMax= 6.43D-05

 Initial convergence to 1.0D-05 achieved.  Increase integral accuracy.
 Cycle   5  Pass 1  IDiag  1:
 E= -41.0049331200135     Delta-E=        0.000000133403 Rises=F Damp=F
 DIIS: error= 2.40D-06 at cycle   1 NSaved=   1.
 NSaved= 1 IEnMin= 1 EnMin= -41.0049331200135     IErMin= 1 ErrMin= 2.40D-06
 ErrMax= 2.40D-06  0.00D+00 EMaxC= 1.00D-01 BMatC= 5.99D-10 BMatP= 5.99D-10
 IDIUse=1 WtCom= 1.00D+00 WtEn= 0.00D+00
 Coeff-Com:  0.100D+01
 Coeff:      0.100D+01
 Gap=     0.305 Goal=   None    Shift=    0.000
 Gap=     0.338 Goal=   None    Shift=    0.000
 RMSDP=5.75D-06 MaxDP=6.51D-05 DE= 1.33D-07 OVMax= 1.24D-05

 Cycle   6  Pass 1  IDiag  1:
 E= -41.0049331202927     Delta-E=       -0.000000000279 Rises=F Damp=F
 DIIS: error= 1.48D-06 at cycle   2 NSaved=   2.
 NSaved= 2 IEnMin= 2 EnMin= -41.0049331202927     IErMin= 2 ErrMin= 1.48D-06
 ErrMax= 1.48D-06  0.00D+00 EMaxC= 1.00D-01 BMatC= 1.58D-10 BMatP= 5.99D-10
 IDIUse=1 WtCom= 1.00D+00 WtEn= 0.00D+00
 Coeff-Com:  0.259D+00 0.741D+00
 Coeff:      0.259D+00 0.741D+00
 Gap=     0.305 Goal=   None    Shift=    0.000
 Gap=     0.338 Goal=   None    Shift=    0.000
 RMSDP=3.55D-07 MaxDP=4.35D-06 DE=-2.79D-10 OVMax= 4.29D-06

 Cycle   7  Pass 1  IDiag  1:
 E= -41.0049331203492     Delta-E=       -0.000000000056 Rises=F Damp=F
 DIIS: error= 8.45D-07 at cycle   3 NSaved=   3.
 NSaved= 3 IEnMin= 3 EnMin= -41.0049331203492     IErMin= 3 ErrMin= 8.45D-07
 ErrMax= 8.45D-07  0.00D+00 EMaxC= 1.00D-01 BMatC= 3.72D-11 BMatP= 1.58D-10
 IDIUse=1 WtCom= 1.00D+00 WtEn= 0.00D+00
 Coeff-Com: -0.787D-01 0.222D+00 0.857D+00
 Coeff:     -0.787D-01 0.222D+00 0.857D+00
 Gap=     0.305 Goal=   None    Shift=    0.000
 Gap=     0.338 Goal=   None    Shift=    0.000
 RMSDP=1.79D-07 MaxDP=1.51D-06 DE=-5.65D-11 OVMax= 2.61D-06

 Cycle   8  Pass 1  IDiag  1:
 E= -41.0049331203675     Delta-E=       -0.000000000018 Rises=F Damp=F
 DIIS: error= 3.39D-07 at cycle   4 NSaved=   4.
 NSaved= 4 IEnMin= 4 EnMin= -41.0049331203675     IErMin= 4 ErrMin= 3.39D-07
 ErrMax= 3.39D-07  0.00D+00 EMaxC= 1.00D-01 BMatC= 4.98D-12 BMatP= 3.72D-11
 IDIUse=1 WtCom= 1.00D+00 WtEn= 0.00D+00
 Coeff-Com: -0.733D-01-0.941D-01 0.187D+00 0.981D+00
 Coeff:     -0.733D-01-0.941D-01 0.187D+00 0.981D+00
 Gap=     0.305 Goal=   None    Shift=    0.000
 Gap=     0.338 Goal=   None    Shift=    0.000
 RMSDP=1.01D-07 MaxDP=9.54D-07 DE=-1.83D-11 OVMax= 1.68D-06

 Cycle   9  Pass 1  IDiag  1:
 E= -41.0049331203713     Delta-E=       -0.000000000004 Rises=F Damp=F
 DIIS: error= 1.22D-07 at cycle   5 NSaved=   5.
 NSaved= 5 IEnMin= 5 EnMin= -41.0049331203713     IErMin= 5 ErrMin= 1.22D-07
 ErrMax= 1.22D-07  0.00D+00 EMaxC= 1.00D-01 BMatC= 2.79D-13 BMatP= 4.98D-12
 IDIUse=1 WtCom= 1.00D+00 WtEn= 0.00D+00
 Coeff-Com:  0.186D-01-0.466D-02-0.117D+00-0.146D+00 0.125D+01
 Coeff:      0.186D-01-0.466D-02-0.117D+00-0.146D+00 0.125D+01
 Gap=     0.305 Goal=   None    Shift=    0.000
 Gap=     0.338 Goal=   None    Shift=    0.000
 RMSDP=3.26D-08 MaxDP=3.56D-07 DE=-3.87D-12 OVMax= 6.67D-07

 Cycle  10  Pass 1  IDiag  1:
 E= -41.0049331203717     Delta-E=       -0.000000000000 Rises=F Damp=F
 DIIS: error= 3.03D-08 at cycle   6 NSaved=   6.
 NSaved= 6 IEnMin= 6 EnMin= -41.0049331203717     IErMin= 6 ErrMin= 3.03D-08
 ErrMax= 3.03D-08  0.00D+00 EMaxC= 1.00D-01 BMatC= 1.72D-14 BMatP= 2.79D-13
 IDIUse=1 WtCom= 1.00D+00 WtEn= 0.00D+00
 Coeff-Com:  0.158D-02 0.424D-02 0.888D-02-0.360D-01-0.174D+00 0.120D+01
 Coeff:      0.158D-02 0.424D-02 0.888D-02-0.360D-01-0.174D+00 0.120D+01
 Gap=     0.305 Goal=   None    Shift=    0.000
 Gap=     0.338 Goal=   None    Shift=    0.000
 RMSDP=7.13D-09 MaxDP=8.45D-08 DE=-3.13D-13 OVMax= 1.61D-07

 SCF Done:  E(UB3LYP) =  -41.0049331204     A.U. after   10 cycles
            NFock= 10  Conv=0.71D-08     -V/T= 2.0131
 <Sx>= 0.0000 <Sy>= 0.0000 <Sz>= 0.5000 <S**2>= 0.7537 S= 0.5019
 <L.S>= 0.000000000000E+00
 KE= 4.047273800541D+01 PE=-1.204847496583D+02 EE= 2.571568352468D+01
 Annihilation of the first spin contaminant:
 S**2 before annihilation     0.7537,   after     0.7500
 Leave Link  502 at Fri Aug 23 16:07:43 2019, MaxMem=  2684354560 cpu:         5.9
 (Enter /soft/gaussian/09-e.01/g09/l508.exe)
 QCSCF skips out because SCF is already converged.
 Leave Link  508 at Fri Aug 23 16:07:43 2019, MaxMem=  2684354560 cpu:         0.0
 (Enter /soft/gaussian/09-e.01/g09/l701.exe)
 Compute integral first derivatives.
 ... and contract with generalized density number  0.
 Leave Link  701 at Fri Aug 23 16:07:43 2019, MaxMem=  2684354560 cpu:         1.6
 (Enter /soft/gaussian/09-e.01/g09/l702.exe)
 L702 exits ... SP integral derivatives will be done elsewhere.
 Leave Link  702 at Fri Aug 23 16:07:43 2019, MaxMem=  2684354560 cpu:         0.2
 (Enter /soft/gaussian/09-e.01/g09/l703.exe)
 Compute integral first derivatives, UseDBF=F ICtDFT=           0.
 Integral derivatives from FoFJK, PRISM(SPDF).
 Calling FoFJK, ICntrl=      2127 FMM=F ISym2X=0 I1Cent= 0 IOpClX= 1 NMat=1 NMatS=1 NMatT=0.
 FoFJK:  IHMeth= 1 ICntrl=    2127 DoSepK=F KAlg= 0 I1Cent=   0 FoldK=F
 IRaf=         0 NMat=   1 IRICut=       1 DoRegI=T DoRafI=F ISym2E= 0.
 FoFCou: FMM=F IPFlag=           0 FMFlag=      100000 FMFlg1=         800
         NFxFlg=           0 DoJE=F BraDBF=F KetDBF=F FulRan=T
         wScrn=  0.000000 ICntrl=    2127 IOpCl=  1 I1Cent=           0 NGrid=           0
         NMat0=    1 NMatS0=      1 NMatT0=    0 NMatD0=    1 NMtDS0=    0 NMtDT0=    0
 Symmetry not used in FoFCou.
 Leave Link  703 at Fri Aug 23 16:07:43 2019, MaxMem=  2684354560 cpu:         2.3
 (Enter /soft/gaussian/09-e.01/g09/l716.exe)
 Dipole        = 1.30010614D-01 4.22588530D-04-6.94062340D-04
 ***** Axes restored to original set *****
 -------------------------------------------------------------------
 Center     Atomic                   Forces (Hartrees/Bohr)
 Number     Number              X              Y              Z
 -------------------------------------------------------------------
      1        6          -0.000001762    0.000292877   -0.000978287
      2        1           0.000000480   -0.000054803    0.000682551
      3        1          -0.000046350   -0.000032297    0.000151187
      4        1           0.000049789   -0.000006146    0.000153414
      5        1          -0.001366698    0.062953437   -0.000140701
      6        1           0.001364540   -0.063153068    0.000131837
 -------------------------------------------------------------------
 Cartesian Forces:  Max     0.063153068 RMS     0.021024821
 -----------------------------------------------------------------------------------------------
                       Internal Coordinate Forces (Hartree/Bohr or radian)
  Cent   Atom   N1       Length/X         N2         Alpha/Y        N3         Beta/Z          J
 -----------------------------------------------------------------------------------------------
      1  C 
      2  H        1   0.000683(     1)
      3  H        1  -0.000116(     2)      2  -0.000221(     7)
      4  H        1  -0.000119(     3)      2  -0.000222(     8)      3  -0.000017(    12)     0
      5  H        1  -0.000199(     4)      2   0.000053(     9)      3  -0.000040(    13)     0
         X        5  -0.000000(     5)      1  -0.000001(    10)      2  -0.000000(    14)     0
      6  H        5  -0.063168(     6)      6  -0.000001(    11)      1   0.000003(    15)     0
 -----------------------------------------------------------------------------------------------
 Internal  Forces:  Max     0.063167946 RMS     0.016311193
 Leave Link  716 at Fri Aug 23 16:07:43 2019, MaxMem=  2684354560 cpu:         0.2
 (Enter /soft/gaussian/09-e.01/g09/l103.exe)

 GradGradGradGradGradGradGradGradGradGradGradGradGradGradGradGradGradGrad
 Berny optimization.
 Search for a local minimum.
 Step number   2 out of a maximum of   25
 All quantities printed in internal units (Hartrees-Bohrs-Radians)
 Update second derivatives using D2CorN and points    1    2
 DE= -1.27D-04 DEPred=-1.33D-04 R= 9.56D-01
 TightC=F SS=  1.41D+00  RLast= 3.02D-02 DXNew= 5.0454D-01 9.0676D-02
 Trust test= 9.56D-01 RLast= 3.02D-02 DXMaxT set to 3.00D-01
 The second derivative matrix:
                          R1        R2        A2        R3        A3
           R1           0.36148
           R2          -0.00303   0.35907
           A2          -0.00172   0.00018   0.31866
           R3          -0.00316   0.00047   0.00020   0.35923
           A3          -0.00174   0.00018   0.15843   0.00020   0.31875
           D3           0.00006  -0.00002  -0.00874  -0.00002  -0.00471
           R4           0.00187  -0.00041  -0.00191  -0.00042  -0.00192
           A4           0.00056  -0.00007   0.00182  -0.00007   0.00279
           D4          -0.00034   0.00004   0.00210   0.00004  -0.00406
           D6           0.00004  -0.00000   0.00001  -0.00000   0.00001
           A6           0.00000  -0.00000  -0.00001  -0.00000  -0.00001
           R5          -0.00000   0.00000  -0.00000   0.00000  -0.00000
           A5          -0.00002   0.00000  -0.00000   0.00000  -0.00000
           D5          -0.00000   0.00000  -0.00000   0.00000  -0.00000
           R6           0.00054  -0.00007   0.00008  -0.00008   0.00008
                          D3        R4        A4        D4        D6
           D3           0.15313
           R4          -0.00020   0.01380
           A4           0.06969   0.00042   0.24144
           D4          -0.11941  -0.00033  -0.00001   0.23903
           D6           0.00000   0.00002  -0.00000  -0.00000   0.16000
           A6          -0.00000  -0.00002   0.00000  -0.00000  -0.00000
           R5          -0.00000  -0.00000  -0.00000  -0.00000   0.00000
           A5          -0.00000  -0.00001   0.00000  -0.00000  -0.00000
           D5          -0.00000  -0.00000  -0.00000   0.00000  -0.00067
           R6           0.00002   0.00025  -0.00001   0.00001  -0.00000
                          A6        R5        A5        D5        R6
           A6           0.16000
           R5           0.00000   0.00000
           A5           0.16000   0.00000   0.16000
           D5          -0.00060  -0.00000  -0.00060   0.00001
           R6           0.00000  -0.00000  -0.00000  -0.00000   0.24791
 ITU=  1  0
     Eigenvalues ---    0.01376   0.05132   0.16000   0.16000   0.16010
     Eigenvalues ---    0.24083   0.34132   0.35607   0.35868   0.36501
     Eigenvalues ---    0.477511000.000001000.000001000.000001000.00000
 RFO step:  Lambda=-3.77124482D-06 EMin= 1.37629106D-02
 Quartic linear search produced a step of -0.05058.
 Variable       Old X    -DE/DX   Delta X   Delta X   Delta X     New X
                                 (Linear)    (Quad)   (Total)
    R1        2.04430   0.00068   0.00134   0.00056   0.00190   2.04620
    R2        2.04654  -0.00012  -0.00018  -0.00013  -0.00031   2.04622
    A2        2.09442  -0.00022   0.00020  -0.00071  -0.00052   2.09390
    R3        2.04655  -0.00012  -0.00019  -0.00013  -0.00032   2.04623
    A3        2.09448  -0.00022   0.00019  -0.00072  -0.00053   2.09396
    D3        3.06735  -0.00002   0.00004  -0.00094  -0.00090   3.06645
    R4        5.06107  -0.00020   0.00063  -0.01528  -0.01465   5.04641
    A4        1.57706   0.00005  -0.00003   0.00053   0.00050   1.57756
    D4        4.68699  -0.00004   0.00003  -0.00066  -0.00063   4.68636
    D6        3.13783   0.00000  -0.00000   0.00002   0.00002   3.13785
    A6        1.57496  -0.00000   0.00000  -0.00001  -0.00001   1.57495
    R5        1.88973  -0.00000   0.00000   0.00000   0.00000   1.88973
    A5        1.57080  -0.00000   0.00000   0.00000   0.00000   1.57080
    D5        3.14159  -0.00000   0.00000   0.00000   0.00000   3.14159
    R6        1.66844  -0.06317   0.00000   0.00000   0.00000   1.66844
         Item               Value     Threshold  Converged?
 Maximum Force            0.000683     0.000450     NO 
 RMS     Force            0.000240     0.000300     YES
 Maximum Displacement     0.014653     0.001800     NO 
 RMS     Displacement     0.003834     0.001200     NO 
 Predicted change in Energy=-2.345134D-06
 Lowest energy point so far.  Saving SCF results.
 GradGradGradGradGradGradGradGradGradGradGradGradGradGradGradGradGradGrad

 Leave Link  103 at Fri Aug 23 16:07:43 2019, MaxMem=  2684354560 cpu:         0.1
 (Enter /soft/gaussian/09-e.01/g09/l202.exe)
 ---------------------------------------------------------------------------------------------------
                            Z-MATRIX (ANGSTROMS AND DEGREES)
   CD    Cent   Atom    N1       Length/X        N2       Alpha/Y        N3        Beta/Z          J
 ---------------------------------------------------------------------------------------------------
      1      1  C 
      2      2  H        1   1.082801(     1)
      3      3  H        1   1.082816(     2)      2  119.972(     7)
      4      4  H        1   1.082817(     3)      2  119.975(     8)      3  175.695(    12)      0
      5      5  H        1   2.670448(     4)      2   90.388(     9)      3  268.509(    13)      0
      6         X        5   1.000000(     5)      1   90.000(    10)      2  180.000(    14)      0
      7      6  H        5   0.882900(     6)      6   90.238(    11)      1  179.786(    15)      0
 ---------------------------------------------------------------------------------------------------
                         Z-Matrix orientation:                         
 ---------------------------------------------------------------------
 Center     Atomic      Atomic             Coordinates (Angstroms)
 Number     Number       Type             X           Y           Z
 ---------------------------------------------------------------------
      1          6           0        0.000000    0.000000    0.000000
      2          1           0        0.000000    0.000000    1.082801
      3          1           0        0.938011    0.000000   -0.540947
      4          1           0       -0.935336   -0.070415   -0.540999
      5          1           0       -0.069494    2.669482   -0.018063
      6         -1           0       -0.069318    2.662720   -1.018041
      7          1           0       -0.089167    3.552160   -0.020371
 ---------------------------------------------------------------------
                    Distance matrix (angstroms):
                    1          2          3          4          5
     1  C    0.000000
     2  H    1.082801   0.000000
     3  H    1.082816   1.875213   0.000000
     4  H    1.082817   1.875244   1.874671   0.000000
     5  H    2.670448   2.888402   2.900795   2.920647   0.000000
     6  X    2.851542   3.392406   2.886592   2.906473   1.000000
     7  H    3.553337   3.720589   3.734158   3.756342   0.882900
                    6          7
     6  X    0.000000
     7  H    1.336728   0.000000
 Stoichiometry    CH5(2)
 Framework group  C1[X(CH5)]
 Deg. of freedom    12
 Full point group                 C1      NOp   1
 RotChk:  IX=0 Diff= 1.87D-01
 Largest Abelian subgroup         C1      NOp   1
 Largest concise Abelian subgroup C1      NOp   1
                         Standard orientation:                         
 ---------------------------------------------------------------------
 Center     Atomic      Atomic             Coordinates (Angstroms)
 Number     Number       Type             X           Y           Z
 ---------------------------------------------------------------------
      1          6           0        0.559391    0.000829   -0.001003
      2          1           0        0.563964    1.049046   -0.272440
      3          1           0        0.579606   -0.758008   -0.773174
      4          1           0        0.605065   -0.288259    1.041511
      5          1           0       -2.111042   -0.004377    0.005967
      6          1           0       -2.993940   -0.003379    0.004154
 ---------------------------------------------------------------------
 Rotational constants (GHZ):    142.6602049     26.0128558     26.0109981
 Leave Link  202 at Fri Aug 23 16:07:43 2019, MaxMem=  2684354560 cpu:         0.1
 (Enter /soft/gaussian/09-e.01/g09/l301.exe)
 Standard basis: 6-31G(d) (6D, 7F)
 Ernie: Thresh=  0.10000D-02 Tol=  0.10000D-05 Strict=F.
 There are    25 symmetry adapted cartesian basis functions of A   symmetry.
 There are    25 symmetry adapted basis functions of A   symmetry.
    25 basis functions,    48 primitive gaussians,    25 cartesian basis functions
     6 alpha electrons        5 beta electrons
       nuclear repulsion energy        13.2968922637 Hartrees.
 IExCor=  402 DFT=T Ex+Corr=B3LYP ExCW=0 ScaHFX=  0.200000
 ScaDFX=  0.800000  0.720000  1.000000  0.810000 ScalE2=  1.000000  1.000000
 IRadAn=      5 IRanWt=     -1 IRanGd=            0 ICorTp=0 IEmpDi=  4
 NAtoms=    6 NActive=    6 NUniq=    6 SFac= 1.00D+00 NAtFMM=   60 NAOKFM=F Big=F
 Integral buffers will be    131072 words long.
 Raffenetti 2 integral format.
 Two-electron integral symmetry is turned on.
 Leave Link  301 at Fri Aug 23 16:07:43 2019, MaxMem=  2684354560 cpu:         0.5
 (Enter /soft/gaussian/09-e.01/g09/l302.exe)
 NPDir=0 NMtPBC=     1 NCelOv=     1 NCel=       1 NClECP=     1 NCelD=      1
         NCelK=      1 NCelE2=     1 NClLst=     1 CellRange=     0.0.
 One-electron integrals computed using PRISM.
 NBasis=    25 RedAO= T EigKep=  2.66D-02  NBF=    25
 NBsUse=    25 1.00D-06 EigRej= -1.00D+00 NBFU=    25
 Precomputing XC quadrature grid using
 IXCGrd= 4 IRadAn=           5 IRanWt=          -1 IRanGd=           0 AccXCQ= 0.00D+00.
 Generated NRdTot=       0 NPtTot=           0 NUsed=           0 NTot=          32
 NSgBfM=    25    25    25    25    25 MxSgAt=     6 MxSgA2=     6.
 Leave Link  302 at Fri Aug 23 16:07:43 2019, MaxMem=  2684354560 cpu:         1.6
 (Enter /soft/gaussian/09-e.01/g09/l303.exe)
 DipDrv:  MaxL=1.
 Leave Link  303 at Fri Aug 23 16:07:43 2019, MaxMem=  2684354560 cpu:         0.2
 (Enter /soft/gaussian/09-e.01/g09/l401.exe)
 Initial guess from the checkpoint file:  "/blues/gpfs/home/elliott/Packages/PACC/moldriver/rcdriver/rundir/RXN/CH3.H2/MDUSDFXREFXETQ/0_0/2_1/UHFFFAOYSA-N/CH4.H/HXBDELFRWIQQII/0_0/1_2/UHFFFAOYSA-N/2/ezvlpJU/SCANS/R6/01/RUN/OPTI/A03/Gau-38720.chk"
 B after Tr=    -0.000000   -0.000000    0.000000
         Rot=    0.997805   -0.066222    0.000024    0.000023 Ang=  -7.59 deg.
 Guess basis will be translated and rotated to current coordinates.
 JPrj=2 DoOrth=T DoCkMO=T.
 Initial guess <Sx>= 0.0000 <Sy>= 0.0000 <Sz>= 0.5000 <S**2>= 0.7537 S= 0.5019
 Leave Link  401 at Fri Aug 23 16:07:44 2019, MaxMem=  2684354560 cpu:         0.7
 (Enter /soft/gaussian/09-e.01/g09/l502.exe)
 UHF open shell SCF:
 Using DIIS extrapolation, IDIIS=  1040.
 Integral symmetry usage will be decided dynamically.
 Keep R1 and R2 ints in memory in canonical form, NReq=976418.
 IVT=        8268 IEndB=        8268 NGot=  2684354560 MDV=  2684240343
 LenX=  2684240343 LenY=  2684239277
 Requested convergence on RMS density matrix=1.00D-08 within  64 cycles.
 Requested convergence on MAX density matrix=1.00D-06.
 Requested convergence on             energy=1.00D-06.
 No special actions if energy rises.
 FoFCou: FMM=F IPFlag=           0 FMFlag=           0 FMFlg1=           0
         NFxFlg=           0 DoJE=F BraDBF=F KetDBF=F FulRan=T
         wScrn=  0.000000 ICntrl=     600 IOpCl=  0 I1Cent=           0 NGrid=           0
         NMat0=    1 NMatS0=    325 NMatT0=    0 NMatD0=    1 NMtDS0=    0 NMtDT0=    0
 Symmetry not used in FoFCou.

 Cycle   1  Pass 1  IDiag  1:
 E= -41.0049365523515    
 DIIS: error= 9.49D-05 at cycle   1 NSaved=   1.
 NSaved= 1 IEnMin= 1 EnMin= -41.0049365523515     IErMin= 1 ErrMin= 9.49D-05
 ErrMax= 9.49D-05  0.00D+00 EMaxC= 1.00D-01 BMatC= 6.93D-07 BMatP= 6.93D-07
 IDIUse=1 WtCom= 1.00D+00 WtEn= 0.00D+00
 Coeff-Com:  0.100D+01
 Coeff:      0.100D+01
 Gap=     2.692 Goal=   None    Shift=    0.000
 Gap=     2.550 Goal=   None    Shift=    0.000
 RMSDP=3.00D-05 MaxDP=2.35D-04              OVMax= 4.61D-04

 Cycle   2  Pass 1  IDiag  1:
 E= -41.0049369313368     Delta-E=       -0.000000378985 Rises=F Damp=F
 DIIS: error= 2.24D-05 at cycle   2 NSaved=   2.
 NSaved= 2 IEnMin= 2 EnMin= -41.0049369313368     IErMin= 2 ErrMin= 2.24D-05
 ErrMax= 2.24D-05  0.00D+00 EMaxC= 1.00D-01 BMatC= 4.11D-08 BMatP= 6.93D-07
 IDIUse=1 WtCom= 1.00D+00 WtEn= 0.00D+00
 Coeff-Com:  0.690D-01 0.931D+00
 Coeff:      0.690D-01 0.931D+00
 Gap=     0.305 Goal=   None    Shift=    0.000
 Gap=     0.338 Goal=   None    Shift=    0.000
 RMSDP=6.98D-06 MaxDP=7.38D-05 DE=-3.79D-07 OVMax= 7.33D-05

 Cycle   3  Pass 1  IDiag  1:
 E= -41.0049369404326     Delta-E=       -0.000000009096 Rises=F Damp=F
 DIIS: error= 1.85D-05 at cycle   3 NSaved=   3.
 NSaved= 3 IEnMin= 3 EnMin= -41.0049369404326     IErMin= 3 ErrMin= 1.85D-05
 ErrMax= 1.85D-05  0.00D+00 EMaxC= 1.00D-01 BMatC= 2.23D-08 BMatP= 4.11D-08
 IDIUse=1 WtCom= 1.00D+00 WtEn= 0.00D+00
 Coeff-Com: -0.157D-01 0.415D+00 0.600D+00
 Coeff:     -0.157D-01 0.415D+00 0.600D+00
 Gap=     0.305 Goal=   None    Shift=    0.000
 Gap=     0.338 Goal=   None    Shift=    0.000
 RMSDP=3.17D-06 MaxDP=3.33D-05 DE=-9.10D-09 OVMax= 3.77D-05

 Cycle   4  Pass 1  IDiag  1:
 E= -41.0049369468452     Delta-E=       -0.000000006413 Rises=F Damp=F
 DIIS: error= 3.43D-06 at cycle   4 NSaved=   4.
 NSaved= 4 IEnMin= 4 EnMin= -41.0049369468452     IErMin= 4 ErrMin= 3.43D-06
 ErrMax= 3.43D-06  0.00D+00 EMaxC= 1.00D-01 BMatC= 6.75D-10 BMatP= 2.23D-08
 IDIUse=1 WtCom= 1.00D+00 WtEn= 0.00D+00
 Coeff-Com: -0.758D-02 0.582D-03 0.104D+00 0.903D+00
 Coeff:     -0.758D-02 0.582D-03 0.104D+00 0.903D+00
 Gap=     0.305 Goal=   None    Shift=    0.000
 Gap=     0.338 Goal=   None    Shift=    0.000
 RMSDP=8.87D-07 MaxDP=6.47D-06 DE=-6.41D-09 OVMax= 1.18D-05

 Cycle   5  Pass 1  IDiag  1:
 E= -41.0049369472557     Delta-E=       -0.000000000411 Rises=F Damp=F
 DIIS: error= 1.95D-06 at cycle   5 NSaved=   5.
 NSaved= 5 IEnMin= 5 EnMin= -41.0049369472557     IErMin= 5 ErrMin= 1.95D-06
 ErrMax= 1.95D-06  0.00D+00 EMaxC= 1.00D-01 BMatC= 8.02D-11 BMatP= 6.75D-10
 IDIUse=1 WtCom= 1.00D+00 WtEn= 0.00D+00
 Coeff-Com:  0.361D-02-0.535D-01-0.906D-01-0.127D+00 0.127D+01
 Coeff:      0.361D-02-0.535D-01-0.906D-01-0.127D+00 0.127D+01
 Gap=     0.305 Goal=   None    Shift=    0.000
 Gap=     0.338 Goal=   None    Shift=    0.000
 RMSDP=5.79D-07 MaxDP=5.34D-06 DE=-4.11D-10 OVMax= 1.02D-05

 Cycle   6  Pass 1  IDiag  1:
 E= -41.0049369473507     Delta-E=       -0.000000000095 Rises=F Damp=F
 DIIS: error= 6.34D-07 at cycle   6 NSaved=   6.
 NSaved= 6 IEnMin= 6 EnMin= -41.0049369473507     IErMin= 6 ErrMin= 6.34D-07
 ErrMax= 6.34D-07  0.00D+00 EMaxC= 1.00D-01 BMatC= 6.01D-12 BMatP= 8.02D-11
 IDIUse=1 WtCom= 1.00D+00 WtEn= 0.00D+00
 Coeff-Com:  0.169D-03 0.616D-02 0.641D-03-0.804D-01-0.929D-01 0.117D+01
 Coeff:      0.169D-03 0.616D-02 0.641D-03-0.804D-01-0.929D-01 0.117D+01
 Gap=     0.305 Goal=   None    Shift=    0.000
 Gap=     0.338 Goal=   None    Shift=    0.000
 RMSDP=1.44D-07 MaxDP=1.74D-06 DE=-9.50D-11 OVMax= 3.25D-06

 Cycle   7  Pass 1  IDiag  1:
 E= -41.0049369473577     Delta-E=       -0.000000000007 Rises=F Damp=F
 DIIS: error= 1.80D-07 at cycle   7 NSaved=   7.
 NSaved= 7 IEnMin= 7 EnMin= -41.0049369473577     IErMin= 7 ErrMin= 1.80D-07
 ErrMax= 1.80D-07  0.00D+00 EMaxC= 1.00D-01 BMatC= 4.91D-13 BMatP= 6.01D-12
[...]

 GradGradGradGradGradGradGradGradGradGradGradGradGradGradGradGradGradGrad
 Berny optimization.
 Search for a local minimum.
 Step number  15 out of a maximum of   25
 All quantities printed in internal units (Hartrees-Bohrs-Radians)
 Update second derivatives using D2CorN and points    1    3    4    5    7
                                                          6   10   15
 DE= -1.26D-07 DEPred=-1.54D-07 R= 8.15D-01
 Trust test= 8.15D-01 RLast= 9.99D-03 DXMaxT set to 5.00D-02
 The second derivative matrix:
                          R1        R2        A2        R3        A3
           R1           0.36444
           R2          -0.00369   0.35916
           A2          -0.00459   0.00018   0.31313
           R3          -0.00383   0.00057   0.00024   0.35933
           A3          -0.00464   0.00018   0.15283   0.00024   0.31307
           D3           0.00015   0.00067  -0.00773   0.00065  -0.00325
           R4          -0.00075   0.00032   0.00312   0.00032   0.00310
           A4          -0.00024  -0.00052   0.00118  -0.00050   0.00192
           D4          -0.00007   0.00060   0.00246   0.00058  -0.00340
           D6          -0.00008  -0.00003  -0.00003  -0.00003  -0.00004
           A6           0.00012   0.00003   0.00001   0.00002   0.00002
           R5          -0.00000   0.00000  -0.00000   0.00000  -0.00000
           A5           0.00013   0.00001   0.00011   0.00001   0.00011
           D5          -0.00000   0.00000   0.00000   0.00000   0.00000
           R6           0.00076  -0.00011   0.00006  -0.00011   0.00006
                          D3        R4        A4        D4        D6
           D3           0.16069
           R4          -0.00424   0.00142
           A4           0.09533  -0.00265   0.21011
           D4          -0.13543   0.00259   0.03072   0.21175
           D6           0.00302  -0.00052  -0.00299   0.00313   0.15972
           A6          -0.00298   0.00060   0.00294  -0.00308   0.00027
           R5          -0.00000   0.00000   0.00000  -0.00000   0.00000
           A5          -0.00368   0.00060   0.00206  -0.00264   0.00015
           D5          -0.00000  -0.00000   0.00000  -0.00000  -0.00067
           R6           0.00038   0.00393  -0.00017   0.00024  -0.00000
                          A6        R5        A5        D5        R6
           A6           0.15974
           R5           0.00000   0.00000
           A5           0.15985   0.00000   0.16000
           D5          -0.00060  -0.00000  -0.00060   0.00001
           R6           0.00000  -0.00000  -0.00000  -0.00000   0.24791
 ITU=  0 -1  0  0  0 -1  0  0 -1  0  1  1  1  1  0
     Eigenvalues ---    0.00122   0.00489   0.15978   0.16000   0.16010
     Eigenvalues ---    0.23920   0.33823   0.35623   0.35868   0.36761
     Eigenvalues ---    0.466631000.000001000.000001000.000001000.00000
 RFO step:  Lambda=-1.71923142D-08 EMin= 1.21671340D-03
 Quartic linear search produced a step of  0.10746.
 Variable       Old X    -DE/DX   Delta X   Delta X   Delta X     New X
                                 (Linear)    (Quad)   (Total)
    R1        2.04628  -0.00000   0.00000  -0.00002  -0.00001   2.04626
    R2        2.04625   0.00000  -0.00000   0.00001   0.00001   2.04626
    A2        2.09286   0.00002  -0.00002   0.00006   0.00004   2.09290
    R3        2.04626   0.00000  -0.00000   0.00001   0.00001   2.04626
    A3        2.09289   0.00002  -0.00002   0.00006   0.00004   2.09293
    D3        3.04152   0.00004  -0.00010  -0.00024  -0.00034   3.04118
    R4        4.84741   0.00000   0.00106  -0.00135  -0.00030   4.84711
    A4        1.59124   0.00004   0.00010   0.00031   0.00042   1.59166
    D4        4.66873  -0.00003  -0.00011  -0.00031  -0.00043   4.66831
    D6        3.13867   0.00001   0.00001   0.00005   0.00006   3.13873
    A6        1.57422  -0.00001  -0.00001  -0.00005  -0.00006   1.57416
    R5        1.88973  -0.00000   0.00000   0.00000   0.00000   1.88973
    A5        1.57080  -0.00001   0.00000   0.00000   0.00000   1.57080
    D5        3.14159  -0.00000   0.00000   0.00000   0.00000   3.14159
    R6        1.66844  -0.06242   0.00000   0.00000   0.00000   1.66844
         Item               Value     Threshold  Converged?
 Maximum Force            0.000038     0.000450     YES
 RMS     Force            0.000020     0.000300     YES
 Maximum Displacement     0.000427     0.001800     YES
 RMS     Displacement     0.000195     0.001200     YES
 Predicted change in Energy=-7.320583D-09
 Optimization completed.
    -- Stationary point found.
                       ----------------------------
                       !   Optimized Parameters   !
                       ! (Angstroms and Degrees)  !
 ----------------------                            ----------------------
 !      Name          Value   Derivative information (Atomic Units)     !
 ------------------------------------------------------------------------
 !       R1          1.0828   -DE/DX =    0.0                           !
 !       R2          1.0828   -DE/DX =    0.0                           !
 !       A2        119.9119   -DE/DX =    0.0                           !
 !       R3          1.0828   -DE/DX =    0.0                           !
 !       A3        119.9138   -DE/DX =    0.0                           !
 !       D3        174.266    -DE/DX =    0.0                           !
 !       R4          2.5651   -DE/DX =    0.0                           !
 !       A4         91.1716   -DE/DX =    0.0                           !
 !       D4        267.4987   -DE/DX =    0.0                           !
 !       D6        179.8327   -DE/DX =    0.0                           !
 !       A6         90.1962   -DE/DX =    0.0                           !
 !       R5          1.0      -DE/DX =    0.0                           !
 !       A5         90.0      -DE/DX =    0.0                           !
 !       D5        180.0      -DE/DX =    0.0                           !
 !       R6          0.8829   -DE/DX =   -0.0624                        !
 ------------------------------------------------------------------------
 Lowest energy point so far.  Saving SCF results.
 GradGradGradGradGradGradGradGradGradGradGradGradGradGradGradGradGradGrad

 Largest change from initial coordinates is atom    2       0.096 Angstoms.
 Leave Link  103 at Fri Aug 23 16:08:06 2019, MaxMem=  2684354560 cpu:         0.2
 (Enter /soft/gaussian/09-e.01/g09/l202.exe)
 ---------------------------------------------------------------------------------------------------
                            Z-MATRIX (ANGSTROMS AND DEGREES)
   CD    Cent   Atom    N1       Length/X        N2       Alpha/Y        N3        Beta/Z          J
 ---------------------------------------------------------------------------------------------------
      1      1  C 
      2      2  H        1   1.082843(     1)
      3      3  H        1   1.082831(     2)      2  119.912(     7)
      4      4  H        1   1.082832(     3)      2  119.914(     8)      3  174.266(    12)      0
      5      5  H        1   2.565138(     4)      2   91.172(     9)      3  267.499(    13)      0
      6         X        5   1.000000(     5)      1   90.000(    10)      2  180.000(    14)      0
      7      6  H        5   0.882900(     6)      6   90.196(    11)      1  179.833(    15)      0
 ---------------------------------------------------------------------------------------------------
                         Z-Matrix orientation:                         
 ---------------------------------------------------------------------
 Center     Atomic      Atomic             Coordinates (Angstroms)
 Number     Number       Type             X           Y           Z
 ---------------------------------------------------------------------
      1          6           0        0.000000    0.000000    0.000000
      2          1           0        0.000000    0.000000    1.082843
      3          1           0        0.938590    0.000000   -0.539973
      4          1           0       -0.933878   -0.093773   -0.540005
      5          1           0       -0.111925    2.562159   -0.052450
      6         -1           0       -0.111032    2.541731   -1.052241
      7          1           0       -0.147874    3.444198   -0.067479
 ---------------------------------------------------------------------
                    Distance matrix (angstroms):
                    1          2          3          4          5
     1  C    0.000000
     2  H    1.082843   0.000000
     3  H    1.082831   1.874695   0.000000
     4  H    1.082832   1.874715   1.874815   0.000000
     5  H    2.565138   2.804652   2.811746   2.822638   0.000000
     6  X    2.753168   3.321341   2.797235   2.808085   1.000000
     7  H    3.448032   3.634228   3.642274   3.654904   0.882900
                    6          7
     6  X    0.000000
     7  H    1.336248   0.000000
 Stoichiometry    CH5(2)
 Framework group  C1[X(CH5)]
 Deg. of freedom    12
 Full point group                 C1      NOp   1
 RotChk:  IX=1 Diff= 2.26D-16
 Largest Abelian subgroup         C1      NOp   1
 Largest concise Abelian subgroup C1      NOp   1
                         Standard orientation:                         
 ---------------------------------------------------------------------
 Center     Atomic      Atomic             Coordinates (Angstroms)
 Number     Number       Type             X           Y           Z
 ---------------------------------------------------------------------
      1          6           0        0.538112   -0.000280   -0.000654
      2          1           0        0.558401    0.279281   -1.046590
      3          1           0        0.567677   -1.045828    0.279488
      4          1           0        0.582184    0.765272    0.763880
      5          1           0       -2.027020    0.001950    0.004484
      6          1           0       -2.909917    0.001007    0.002666
 ---------------------------------------------------------------------
 Rotational constants (GHZ):    142.6854776     27.6182306     27.6176329
 Leave Link  202 at Fri Aug 23 16:08:06 2019, MaxMem=  2684354560 cpu:         0.1
 (Enter /soft/gaussian/09-e.01/g09/l601.exe)
 Copying SCF densities to generalized density rwf, IOpCl= 1 IROHF=0.

 **********************************************************************

            Population analysis using the SCF density.

 **********************************************************************

 Orbital symmetries:
 Alpha Orbitals:
       Occupied  (A) (A) (A) (A) (A) (A)
       Virtual   (A) (A) (A) (A) (A) (A) (A) (A) (A) (A) (A) (A)
                 (A) (A) (A) (A) (A) (A) (A)
 Beta  Orbitals:
       Occupied  (A) (A) (A) (A) (A)
       Virtual   (A) (A) (A) (A) (A) (A) (A) (A) (A) (A) (A) (A)
                 (A) (A) (A) (A) (A) (A) (A) (A)
 The electronic state is 2-A.
 Alpha  occ. eigenvalues --  -10.19787  -0.68693  -0.42149  -0.42146  -0.40086
 Alpha  occ. eigenvalues --   -0.22876
 Alpha virt. eigenvalues --    0.08083   0.11326   0.17835   0.17836   0.53983
 Alpha virt. eigenvalues --    0.53985   0.55143   0.62362   0.78582   0.90947
 Alpha virt. eigenvalues --    0.90950   0.96138   1.12175   1.64430   1.64431
 Alpha virt. eigenvalues --    2.00509   2.18165   2.18174   4.09127
  Beta  occ. eigenvalues --  -10.18400  -0.64705  -0.41203  -0.41200  -0.39738
  Beta virt. eigenvalues --   -0.06170   0.09310   0.12950   0.18384   0.18385
  Beta virt. eigenvalues --    0.54800   0.54802   0.60569   0.64939   0.80437
  Beta virt. eigenvalues --    0.91434   0.91437   0.98683   1.12774   1.71413
  Beta virt. eigenvalues --    1.71415   2.08983   2.19286   2.19296   4.12802
          Condensed to atoms (all electrons):
               1          2          3          4          5          6
     1  C    5.337453   0.379994   0.380000   0.380002   0.015219  -0.006074
     2  H    0.379994   0.510274  -0.029403  -0.029397   0.000029   0.000036
     3  H    0.380000  -0.029403   0.510276  -0.029384   0.000026   0.000038
     4  H    0.380002  -0.029397  -0.029384   0.510314   0.000023   0.000041
     5  H    0.015219   0.000029   0.000026   0.000023   0.612620   0.367454
     6  H   -0.006074   0.000036   0.000038   0.000041   0.367454   0.661856
          Atomic-Atomic Spin Densities.
               1          2          3          4          5          6
     1  C    1.144631  -0.009039  -0.009035  -0.009028   0.012865  -0.006611
     2  H   -0.009039  -0.043062   0.000967   0.000966  -0.000069   0.000022
     3  H   -0.009035   0.000967  -0.043070   0.000965  -0.000069   0.000022
     4  H   -0.009028   0.000966   0.000965  -0.043082  -0.000068   0.000021
     5  H    0.012865  -0.000069  -0.000069  -0.000068  -0.016186  -0.009476
     6  H   -0.006611   0.000022   0.000022   0.000021  -0.009476   0.055900
 Mulliken charges and spin densities:
               1          2
     1  C   -0.486593   1.123783
     2  H    0.168467  -0.050214
     3  H    0.168447  -0.050219
     4  H    0.168401  -0.050226
     5  H    0.004629  -0.013002
     6  H   -0.023351   0.039878
 Sum of Mulliken charges =   0.00000   1.00000
 Mulliken charges and spin densities with hydrogens summed into heavy atoms:
               1          2
     1  C    0.000000   1.000000
 Electronic spatial extent (au):  <R**2>=             88.8609
 Charge=              0.0000 electrons
 Dipole moment (field-independent basis, Debye):
    X=              0.3797    Y=             -0.0005    Z=             -0.0014  Tot=              0.3797
 Quadrupole moment (field-independent basis, Debye-Ang):
   XX=            -10.8734   YY=             -9.1704   ZZ=             -9.1709
   XY=              0.0085   XZ=              0.0206   YZ=             -0.0000
 Traceless Quadrupole moment (field-independent basis, Debye-Ang):
   XX=             -1.1352   YY=              0.5679   ZZ=              0.5673
   XY=              0.0085   XZ=              0.0206   YZ=             -0.0000
 Octapole moment (field-independent basis, Debye-Ang**2):
  XXX=              0.9294  YYY=             -0.5839  ZZZ=             -0.5910  XYY=              1.7595
  XXY=              0.0056  XXZ=              0.0146  XZZ=              1.7510  YZZ=              0.5783
  YYZ=              0.5779  XYZ=              0.0097
 Hexadecapole moment (field-independent basis, Debye-Ang**3):
 XXXX=            -96.7353 YYYY=            -15.9537 ZZZZ=            -15.9517 XXXY=              0.0254
 XXXZ=              0.0568 YYYX=             -0.3181 YYYZ=             -0.0002 ZZZX=             -0.2907
 ZZZY=             -0.0020 XXYY=            -20.7386 XXZZ=            -20.7480 YYZZ=             -5.3203
 XXYZ=              0.0114 YYXZ=              0.3545 ZZXY=              0.3442
 N-N= 1.340133750848D+01 E-N=-1.207027921603D+02  KE= 4.047390158741D+01
                          Isotropic Fermi Contact Couplings
        Atom                 a.u.       MegaHertz       Gauss      10(-4) cm-1
     1  C(13)              0.10817     121.60401      43.39133      40.56273
     2  H(1)              -0.01546     -69.11386     -24.66154     -23.05390
     3  H(1)              -0.01546     -69.11639     -24.66245     -23.05475
     4  H(1)              -0.01546     -69.11745     -24.66282     -23.05510
     5  H(1)              -0.00444     -19.82498      -7.07405      -6.61290
     6  H(1)               0.01277      57.09687      20.37358      19.04546
 --------------------------------------------------------
       Center         ----  Spin Dipole Couplings  ----
                      3XX-RR        3YY-RR        3ZZ-RR
 --------------------------------------------------------
     1   Atom        1.074813     -0.537503     -0.537309
     2   Atom       -0.005558     -0.061623      0.067181
     3   Atom       -0.005529      0.067095     -0.061567
     4   Atom       -0.005439      0.002807      0.002633
     5   Atom        0.033285     -0.016642     -0.016643
     6   Atom        0.006205     -0.003102     -0.003103
 --------------------------------------------------------
                        XY            XZ            YZ
 --------------------------------------------------------
     1   Atom       -0.007813     -0.019094      0.000091
     2   Atom        0.000021     -0.002053     -0.037085
     3   Atom       -0.002825     -0.000109     -0.037163
     4   Atom        0.002928      0.002463      0.074253
     5   Atom        0.000011      0.000025      0.000002
     6   Atom       -0.000001     -0.000001      0.000000
 --------------------------------------------------------


 ---------------------------------------------------------------------------------
              Anisotropic Spin Dipole Couplings in Principal Axis System
 ---------------------------------------------------------------------------------

       Atom             a.u.   MegaHertz   Gauss  10(-4) cm-1        Axes

              Baa    -0.5375   -72.133   -25.739   -24.061  0.0076  0.9688  0.2476
     1 C(13)  Bbb    -0.5375   -72.132   -25.739   -24.061  0.0103 -0.2477  0.9688
              Bcc     1.0751   144.265    51.477    48.122  0.9999 -0.0048 -0.0118
 
              Baa    -0.0715   -38.171   -13.620   -12.733  0.0077  0.9660  0.2584
     2 H(1)   Bbb    -0.0056    -2.989    -1.067    -0.997  0.9997 -0.0137  0.0212
              Bcc     0.0771    41.160    14.687    13.730 -0.0240 -0.2581  0.9658
 
              Baa    -0.0715   -38.170   -13.620   -12.732  0.0127  0.2591  0.9658
     3 H(1)   Bbb    -0.0056    -2.991    -1.067    -0.998  0.9994  0.0283 -0.0207
              Bcc     0.0771    41.161    14.687    13.730 -0.0326  0.9654 -0.2586
 
              Baa    -0.0715   -38.168   -13.619   -12.731  0.0049 -0.7068  0.7074
     4 H(1)   Bbb    -0.0056    -2.995    -1.069    -0.999  0.9989 -0.0291 -0.0361
              Bcc     0.0771    41.163    14.688    13.731  0.0461  0.7068  0.7059
 
              Baa    -0.0166    -8.881    -3.169    -2.962 -0.0003 -0.5585  0.8295
     5 H(1)   Bbb    -0.0166    -8.879    -3.168    -2.962 -0.0005  0.8295  0.5585
              Bcc     0.0333    17.759     6.337     5.924  1.0000  0.0002  0.0005
 
              Baa    -0.0031    -1.656    -0.591    -0.552  0.0000 -0.5590  0.8291
     6 H(1)   Bbb    -0.0031    -1.655    -0.591    -0.552  0.0001  0.8291  0.5590
              Bcc     0.0062     3.311     1.181     1.104  1.0000 -0.0001 -0.0001
 

 ---------------------------------------------------------------------------------

 No NMR shielding tensors so no spin-rotation constants.
 Leave Link  601 at Fri Aug 23 16:08:06 2019, MaxMem=  2684354560 cpu:         3.1
 (Enter /soft/gaussian/09-e.01/g09/l9999.exe)
 1\1\GINC-BLUESLOGIN2\POpt\UB3LYP\6-31G(d)\C1H5(2)\ELLIOTT\23-Aug-2019\
 1\\#P b3lyp/6-31g* # SCF=(xqc) # POpt=() # int=ultrafine\\comment:\\0,
 2\C\H,1,R1\H,1,R2,2,A2\H,1,R3,2,A3,3,D3,0\H,1,R4,2,A4,3,D4,0\X,5,R5,1,
 A5,2,D5,0\H,5,R6,6,A6,1,D6,0\\R1=1.08284255\R2=1.08283079\A2=119.91189
 443\R3=1.08283242\A3=119.91381108\D3=174.2660251\R4=2.56513836\A4=91.1
 7161626\D4=267.49870002\D6=179.83266754\A6=90.19621174\R5=1.\A5=90.\D5
 =180.\R6=0.8829\\Version=ES64L-G09RevE.01\State=2-A\HF=-41.0049579\S2=
 0.753795\S2-1=0.\S2A=0.750008\RMSD=5.237e-09\RMSF=2.081e-02\Dipole=0.0
 066556,-0.1491942,0.003258\Quadrupole=0.4190376,-0.8399389,0.4209013,0
 .0634861,-0.001861,0.0368156\PG=C01 [X(C1H5)]\\@


 THE MORE PROGRESS PHYSICAL SCIENCES MAKE, THE MORE THEY TEND TO ENTER
 THE DOMAIN OF MATHEMATICS, WHICH IS A KIND OF CENTRE TO WHICH THEY ALL
 CONVERGE.  WE MAY EVEN JUDGE THE DEGREE OF PERFECTION TO WHICH A 
 SCIENCE HAS ARRIVED BY THE FACILITY WITH WHICH IT MAY BE SUBMITTED
 TO CALCULATION.

                               -- ADOLPHE QUETELET, 1796-1874
 Job cpu time:       0 days  0 hours  3 minutes 51.0 seconds.
 File lengths (MBytes):  RWF=     77 Int=      0 D2E=      0 Chk=      2 Scr=      2
 Normal termination of Gaussian 09 at Fri Aug 23 16:08:06 2019.
