 Entering Gaussian System, Link 0=g09
 Input=run.inp
 Output=run.out
 Initial command:
 /soft/gaussian/09-e.01/g09/l1.exe "/scratch/sjklipp/Gau-122788.inp" -scrdir="/scratch/sjklipp/"
 Entering Link 1 = /soft/gaussian/09-e.01/g09/l1.exe PID=    122789.
  
 Copyright (c) 1988,1990,1992,1993,1995,1998,2003,2009,2015,
            Gaussian, Inc.  All Rights Reserved.
  
 This is part of the Gaussian(R) 09 program.  It is based on
 the Gaussian(R) 03 system (copyright 2003, Gaussian, Inc.),
 the Gaussian(R) 98 system (copyright 1998, Gaussian, Inc.),
 the Gaussian(R) 94 system (copyright 1995, Gaussian, Inc.),
 the Gaussian 92(TM) system (copyright 1992, Gaussian, Inc.),
 the Gaussian 90(TM) system (copyright 1990, Gaussian, Inc.),
 the Gaussian 88(TM) system (copyright 1988, Gaussian, Inc.),
 the Gaussian 86(TM) system (copyright 1986, Carnegie Mellon
 University), and the Gaussian 82(TM) system (copyright 1983,
 Carnegie Mellon University). Gaussian is a federally registered
 trademark of Gaussian, Inc.
  
 This software contains proprietary and confidential information,
 including trade secrets, belonging to Gaussian, Inc.
  
 This software is provided under written license and may be
 used, copied, transmitted, or stored only in accord with that
 written license.
  
 The following legend is applicable only to US Government
 contracts under FAR:
  
                    RESTRICTED RIGHTS LEGEND
  
 Use, reproduction and disclosure by the US Government is
 subject to restrictions as set forth in subparagraphs (a)
 and (c) of the Commercial Computer Software - Restricted
 Rights clause in FAR 52.227-19.
  
 Gaussian, Inc.
 340 Quinnipiac St., Bldg. 40, Wallingford CT 06492
  
  
 ---------------------------------------------------------------
 Warning -- This program may not be used in any manner that
 competes with the business of Gaussian, Inc. or will provide
 assistance to any competitor of Gaussian, Inc.  The licensee
 of this program is prohibited from giving any competitor of
 Gaussian, Inc. access to this program.  By using this program,
 the user acknowledges that Gaussian, Inc. is engaged in the
 business of creating and licensing software in the field of
 computational chemistry and represents and warrants to the
 licensee that it is not a competitor of Gaussian, Inc. and that
 it will not use this program in any manner prohibited above.
 ---------------------------------------------------------------
  

 Cite this work as:
 Gaussian 09, Revision E.01,
 M. J. Frisch, G. W. Trucks, H. B. Schlegel, G. E. Scuseria, 
 M. A. Robb, J. R. Cheeseman, G. Scalmani, V. Barone, B. Mennucci, 
 G. A. Petersson, H. Nakatsuji, M. Caricato, X. Li, H. P. Hratchian, 
 A. F. Izmaylov, J. Bloino, G. Zheng, J. L. Sonnenberg, M. Hada, 
 M. Ehara, K. Toyota, R. Fukuda, J. Hasegawa, M. Ishida, T. Nakajima, 
 Y. Honda, O. Kitao, H. Nakai, T. Vreven, J. A. Montgomery, Jr., 
 J. E. Peralta, F. Ogliaro, M. Bearpark, J. J. Heyd, E. Brothers, 
 K. N. Kudin, V. N. Staroverov, T. Keith, R. Kobayashi, J. Normand, 
 K. Raghavachari, A. Rendell, J. C. Burant, S. S. Iyengar, J. Tomasi, 
 M. Cossi, N. Rega, J. M. Millam, M. Klene, J. E. Knox, J. B. Cross, 
 V. Bakken, C. Adamo, J. Jaramillo, R. Gomperts, R. E. Stratmann, 
 O. Yazyev, A. J. Austin, R. Cammi, C. Pomelli, J. W. Ochterski, 
 R. L. Martin, K. Morokuma, V. G. Zakrzewski, G. A. Voth, 
 P. Salvador, J. J. Dannenberg, S. Dapprich, A. D. Daniels, 
 O. Farkas, J. B. Foresman, J. V. Ortiz, J. Cioslowski, 
 and D. J. Fox, Gaussian, Inc., Wallingford CT, 2013.
 
 ******************************************
 Gaussian 09:  ES64L-G09RevE.01 30-Nov-2015
                17-Jul-2019 
 ******************************************
 %mem=10GB
 %NProcShared=10
 Will use up to   10 processors via shared memory.
 ------------------------------------------------------
 #P wb97xd/6-31g* # SCF=(xqc) # POpt=() # int=ultrafine
 ------------------------------------------------------
 1/10=7,14=-1,26=4,38=1/1,3;
 2/12=2,17=6,18=5,29=3,40=1/2;
 3/5=1,6=6,7=1,11=2,16=1,25=1,30=1,71=1,74=-58,75=-5/1,2,3;
 4//1;
 5/5=2,8=3,13=1,38=5/2,8;
 6/7=2,8=2,9=2,10=2,28=1/1;
 7/29=1/1,2,3,16;
 1/10=7,14=-1,26=4/3(2);
 2/29=3/2;
 99//99;
 2/29=3/2;
 3/5=1,6=6,7=1,11=2,16=1,25=1,30=1,71=1,74=-58,75=-5/1,2,3;
 4/5=5,16=3,69=1/1;
 5/5=2,8=3,13=1,38=5/2,8;
 7//1,2,3,16;
 1/14=-1,26=4/3(-5);
 2/29=3/2;
 6/7=2,8=2,9=2,10=2,19=2,28=1/1;
 99/9=1/99;
 Leave Link    1 at Wed Jul 17 10:14:08 2019, MaxMem=  1342177280 cpu:         0.6
 (Enter /soft/gaussian/09-e.01/g09/l101.exe)
 --------
 comment:
 --------
 Symbolic Z-matrix:
 Charge =  0 Multiplicity = 1
 C
 N                    1    R1
 H                    2    R2       1    A2
       Variables:
  R1                    1.46131                  
  R2                    1.026                    
  A2                  111.5                      
 
 NAtoms=      3 NQM=        3 NQMF=       0 NMMI=      0 NMMIF=      0
                NMic=       0 NMicF=      0.
                    Isotopes and Nuclear Properties:
 (Nuclear quadrupole moments (NQMom) in fm**2, nuclear magnetic moments (NMagM)
  in nuclear magnetons)

  Atom         1           2           3
 IAtWgt=          12          14           1
 AtmWgt=  12.0000000  14.0030740   1.0078250
 NucSpn=           0           2           1
 AtZEff=   0.0000000   0.0000000   0.0000000
 NQMom=    0.0000000   2.0440000   0.0000000
 NMagM=    0.0000000   0.4037610   2.7928460
 AtZNuc=   6.0000000   7.0000000   1.0000000
 Leave Link  101 at Wed Jul 17 10:14:08 2019, MaxMem=  1342177280 cpu:         0.8
 (Enter /soft/gaussian/09-e.01/g09/l103.exe)

 GradGradGradGradGradGradGradGradGradGradGradGradGradGradGradGradGradGrad
 Berny optimization.
 Initialization pass.
                       ----------------------------
                       !    Initial Parameters    !
                       ! (Angstroms and Degrees)  !
 ----------------------                            ----------------------
 !      Name          Value   Derivative information (Atomic Units)     !
 ------------------------------------------------------------------------
 !       R1          1.4613   estimate D2E/DX2                          !
 !       R2          1.026    estimate D2E/DX2                          !
 !       A2        111.5      estimate D2E/DX2                          !
 ------------------------------------------------------------------------
 Trust Radius=3.00D-01 FncErr=1.00D-07 GrdErr=1.00D-06
 Number of steps in this run=     20 maximum allowed number of steps=    100.
 GradGradGradGradGradGradGradGradGradGradGradGradGradGradGradGradGradGrad

 Leave Link  103 at Wed Jul 17 10:14:09 2019, MaxMem=  1342177280 cpu:         0.7
 (Enter /soft/gaussian/09-e.01/g09/l202.exe)
 ---------------------------------------------------------------------------------------------------
                            Z-MATRIX (ANGSTROMS AND DEGREES)
   CD    Cent   Atom    N1       Length/X        N2       Alpha/Y        N3        Beta/Z          J
 ---------------------------------------------------------------------------------------------------
      1      1  C 
      2      2  N        1   1.461307(     1)
      3      3  H        2   1.026001(     2)      1  111.500(     3)
 ---------------------------------------------------------------------------------------------------
                         Z-Matrix orientation:                         
 ---------------------------------------------------------------------
 Center     Atomic      Atomic             Coordinates (Angstroms)
 Number     Number       Type             X           Y           Z
 ---------------------------------------------------------------------
      1          6           0        0.000000    0.000000    0.000000
      2          7           0        0.000000    0.000000    1.461307
      3          1           0        0.954609    0.000000    1.837338
 ---------------------------------------------------------------------
                    Distance matrix (angstroms):
                    1          2          3
     1  C    0.000000
     2  N    1.461307   0.000000
     3  H    2.070529   1.026001   0.000000
 Stoichiometry    CHN
 Framework group  CS[SG(CHN)]
 Deg. of freedom     3
 Full point group                 CS      NOp   2
 Largest Abelian subgroup         CS      NOp   2
 Largest concise Abelian subgroup C1      NOp   1
                         Standard orientation:                         
 ---------------------------------------------------------------------
 Center     Atomic      Atomic             Coordinates (Angstroms)
 Number     Number       Type             X           Y           Z
 ---------------------------------------------------------------------
      1          6           0        0.068186    0.861892    0.000000
      2          7           0        0.068186   -0.599415    0.000000
      3          1           0       -0.886423   -0.975446    0.000000
 ---------------------------------------------------------------------
 Rotational constants (GHZ):    618.7351419     33.8333167     32.0791815
 Leave Link  202 at Wed Jul 17 10:14:09 2019, MaxMem=  1342177280 cpu:         0.2
 (Enter /soft/gaussian/09-e.01/g09/l301.exe)
 Standard basis: 6-31G(d) (6D, 7F)
 Ernie: Thresh=  0.10000D-02 Tol=  0.10000D-05 Strict=F.
 There are    24 symmetry adapted cartesian basis functions of A'  symmetry.
 There are     8 symmetry adapted cartesian basis functions of A"  symmetry.
 There are    24 symmetry adapted basis functions of A'  symmetry.
 There are     8 symmetry adapted basis functions of A"  symmetry.
    32 basis functions,    60 primitive gaussians,    32 cartesian basis functions
     7 alpha electrons        7 beta electrons
       nuclear repulsion energy        20.3531132753 Hartrees.
 IExCor= 4639 DFT=T Ex+Corr=wB97XD ExCW=0 ScaHFX=  1.000000
 ScaDFX=  1.000000  1.000000  1.000000  1.000000 ScalE2=  1.000000  1.000000
 IRadAn=      5 IRanWt=     -1 IRanGd=            0 ICorTp=0 IEmpDi=121
  HFx wShort=  0.000000 wLong=  0.200000 cFull=  0.222036 cShort=  0.000000 cLong=  0.777964
  DFx wShort=  0.000000 wLong=  0.200000 cFull=  0.000000 cShort=  0.000000 cLong=  1.000000
 NAtoms=    3 NActive=    3 NUniq=    3 SFac= 1.00D+00 NAtFMM=   60 NAOKFM=F Big=F
 Integral buffers will be    131072 words long.
 Raffenetti 2 integral format.
 Two-electron integral symmetry is turned on.
 R6Disp:  Grimme-D2 Dispersion energy=       -0.0000550681 Hartrees.
 Nuclear repulsion after empirical dispersion term =       20.3530582072 Hartrees.
 Leave Link  301 at Wed Jul 17 10:14:09 2019, MaxMem=  1342177280 cpu:         1.1
 (Enter /soft/gaussian/09-e.01/g09/l302.exe)
 NPDir=0 NMtPBC=     1 NCelOv=     1 NCel=       1 NClECP=     1 NCelD=      1
         NCelK=      1 NCelE2=     1 NClLst=     1 CellRange=     0.0.
 One-electron integrals computed using PRISM.
 NBasis=    32 RedAO= T EigKep=  2.05D-02  NBF=    24     8
 NBsUse=    32 1.00D-06 EigRej= -1.00D+00 NBFU=    24     8
 Precomputing XC quadrature grid using
 IXCGrd= 4 IRadAn=           5 IRanWt=          -1 IRanGd=           0 AccXCQ= 0.00D+00.
 Generated NRdTot=       0 NPtTot=           0 NUsed=           0 NTot=          32
 NSgBfM=    32    32    32    32    32 MxSgAt=     3 MxSgA2=     3.
 Leave Link  302 at Wed Jul 17 10:14:10 2019, MaxMem=  1342177280 cpu:         3.4
 (Enter /soft/gaussian/09-e.01/g09/l303.exe)
 DipDrv:  MaxL=1.
 Leave Link  303 at Wed Jul 17 10:14:11 2019, MaxMem=  1342177280 cpu:         2.9
 (Enter /soft/gaussian/09-e.01/g09/l401.exe)
 ExpMin= 1.61D-01 ExpMax= 4.17D+03 ExpMxC= 6.27D+02 IAcc=3 IRadAn=         5 AccDes= 0.00D+00
 Harris functional with IExCor= 4639 and IRadAn=       5 diagonalized for initial guess.
 HarFok:  IExCor= 4639 AccDes= 0.00D+00 IRadAn=         5 IDoV= 1 UseB2=F ITyADJ=14
 ICtDFT=  3500011 ScaDFX=  1.000000  1.000000  1.000000  1.000000
 FoFCou: FMM=F IPFlag=           0 FMFlag=      100000 FMFlg1=           0
         NFxFlg=           0 DoJE=T BraDBF=F KetDBF=T FulRan=T
         wScrn=  0.000000 ICntrl=     500 IOpCl=  0 I1Cent=   200000004 NGrid=           0
         NMat0=    1 NMatS0=      1 NMatT0=    0 NMatD0=    1 NMtDS0=    0 NMtDT0=    0
 Petite list used in FoFCou.
 Harris En= -89.4880267805064    
 JPrj=0 DoOrth=F DoCkMO=F.
 Initial guess orbital symmetries:
       Occupied  (A') (A') (A') (A') (A') (A") (A')
       Virtual   (A') (A") (A') (A') (A') (A") (A') (A') (A') (A")
                 (A') (A') (A') (A") (A') (A") (A') (A") (A') (A')
                 (A") (A') (A') (A') (A')
 The electronic state of the initial guess is 1-A'.
 Leave Link  401 at Wed Jul 17 10:14:19 2019, MaxMem=  1342177280 cpu:         8.3
 (Enter /soft/gaussian/09-e.01/g09/l502.exe)
 Closed shell SCF:
 Using DIIS extrapolation, IDIIS=  1040.
 Integral symmetry usage will be decided dynamically.
 Keep R1 ints in memory in symmetry-blocked form, NReq=1152844.
 IVT=        9588 IEndB=        9588 NGot=  1342177280 MDV=  1342091077
 LenX=  1342091077 LenY=  1342089612
 Requested convergence on RMS density matrix=1.00D-08 within  64 cycles.
 Requested convergence on MAX density matrix=1.00D-06.
 Requested convergence on             energy=1.00D-06.
 No special actions if energy rises.
 FoFCou: FMM=F IPFlag=           0 FMFlag=           0 FMFlg1=           0
         NFxFlg=           0 DoJE=F BraDBF=F KetDBF=F FulRan=T
         wScrn=  0.000000 ICntrl=     600 IOpCl=  0 I1Cent=           0 NGrid=           0
         NMat0=    1 NMatS0=    528 NMatT0=    0 NMatD0=    1 NMtDS0=    0 NMtDT0=    0
 Petite list used in FoFCou.
 Integral accuracy reduced to 1.0D-05 until final iterations.

 Cycle   1  Pass 0  IDiag  1:
 E= -93.2298430591720    
 DIIS: error= 8.89D-02 at cycle   1 NSaved=   1.
 NSaved= 1 IEnMin= 1 EnMin= -93.2298430591720     IErMin= 1 ErrMin= 8.89D-02
 ErrMax= 8.89D-02  0.00D+00 EMaxC= 1.00D-01 BMatC= 9.92D-02 BMatP= 9.92D-02
 IDIUse=3 WtCom= 1.11D-01 WtEn= 8.89D-01
 Coeff-Com:  0.100D+01
 Coeff-En:   0.100D+01
 Coeff:      0.100D+01
 Gap=     0.355 Goal=   None    Shift=    0.000
 GapD=    0.355 DampG=1.000 DampE=0.500 DampFc=0.5000 IDamp=-1.
 Damping current iteration by 5.00D-01
 RMSDP=9.29D-03 MaxDP=1.04D-01              OVMax= 8.73D-02

 Cycle   2  Pass 0  IDiag  1:
 E= -93.2484554828046     Delta-E=       -0.018612423633 Rises=F Damp=T
 DIIS: error= 3.81D-02 at cycle   2 NSaved=   2.
 NSaved= 2 IEnMin= 2 EnMin= -93.2484554828046     IErMin= 2 ErrMin= 3.81D-02
 ErrMax= 3.81D-02  0.00D+00 EMaxC= 1.00D-01 BMatC= 1.95D-02 BMatP= 9.92D-02
 IDIUse=3 WtCom= 6.19D-01 WtEn= 3.81D-01
 Coeff-Com: -0.612D+00 0.161D+01
 Coeff-En:   0.000D+00 0.100D+01
 Coeff:     -0.379D+00 0.138D+01
 Gap=     0.392 Goal=   None    Shift=    0.000
 RMSDP=3.80D-03 MaxDP=3.25D-02 DE=-1.86D-02 OVMax= 7.89D-02

 Cycle   3  Pass 0  IDiag  1:
 E= -93.2571485314824     Delta-E=       -0.008693048678 Rises=F Damp=F
 DIIS: error= 2.40D-02 at cycle   3 NSaved=   3.
 NSaved= 3 IEnMin= 3 EnMin= -93.2571485314824     IErMin= 3 ErrMin= 2.40D-02
 ErrMax= 2.40D-02  0.00D+00 EMaxC= 1.00D-01 BMatC= 1.09D-02 BMatP= 1.95D-02
 IDIUse=3 WtCom= 7.60D-01 WtEn= 2.40D-01
 Coeff-Com: -0.416D+00 0.983D+00 0.433D+00
 Coeff-En:   0.000D+00 0.960D-01 0.904D+00
 Coeff:     -0.316D+00 0.770D+00 0.546D+00
 Gap=     0.364 Goal=   None    Shift=    0.000
 RMSDP=2.80D-03 MaxDP=3.40D-02 DE=-8.69D-03 OVMax= 5.71D-02

 Cycle   4  Pass 0  IDiag  1:
 E= -93.2650709093089     Delta-E=       -0.007922377826 Rises=F Damp=F
 DIIS: error= 1.01D-02 at cycle   4 NSaved=   4.
 NSaved= 4 IEnMin= 4 EnMin= -93.2650709093089     IErMin= 4 ErrMin= 1.01D-02
 ErrMax= 1.01D-02  0.00D+00 EMaxC= 1.00D-01 BMatC= 2.33D-03 BMatP= 1.09D-02
 IDIUse=3 WtCom= 8.99D-01 WtEn= 1.01D-01
 Coeff-Com: -0.578D-01 0.118D+00 0.327D+00 0.613D+00
 Coeff-En:   0.000D+00 0.000D+00 0.212D+00 0.788D+00
 Coeff:     -0.520D-01 0.106D+00 0.315D+00 0.631D+00
 Gap=     0.375 Goal=   None    Shift=    0.000
 RMSDP=9.28D-04 MaxDP=1.08D-02 DE=-7.92D-03 OVMax= 1.67D-02

 Cycle   5  Pass 0  IDiag  1:
 E= -93.2670813870968     Delta-E=       -0.002010477788 Rises=F Damp=F
 DIIS: error= 9.16D-04 at cycle   5 NSaved=   5.
 NSaved= 5 IEnMin= 5 EnMin= -93.2670813870968     IErMin= 5 ErrMin= 9.16D-04
 ErrMax= 9.16D-04  0.00D+00 EMaxC= 1.00D-01 BMatC= 1.15D-05 BMatP= 2.33D-03
 IDIUse=3 WtCom= 9.91D-01 WtEn= 9.16D-03
 Coeff-Com:  0.397D-02-0.957D-02-0.238D-01 0.229D-01 0.101D+01
 Coeff-En:   0.000D+00 0.000D+00 0.000D+00 0.000D+00 0.100D+01
 Coeff:      0.393D-02-0.948D-02-0.235D-01 0.227D-01 0.101D+01
 Gap=     0.375 Goal=   None    Shift=    0.000
 RMSDP=1.03D-04 MaxDP=1.22D-03 DE=-2.01D-03 OVMax= 2.31D-03

 Cycle   6  Pass 0  IDiag  1:
 E= -93.2670962065383     Delta-E=       -0.000014819442 Rises=F Damp=F
 DIIS: error= 1.42D-04 at cycle   6 NSaved=   6.
 NSaved= 6 IEnMin= 6 EnMin= -93.2670962065383     IErMin= 6 ErrMin= 1.42D-04
 ErrMax= 1.42D-04  0.00D+00 EMaxC= 1.00D-01 BMatC= 2.75D-07 BMatP= 1.15D-05
 IDIUse=3 WtCom= 9.99D-01 WtEn= 1.42D-03
 Coeff-Com:  0.386D-02-0.740D-02-0.252D-01-0.604D-01-0.932D-01 0.118D+01
 Coeff-En:   0.000D+00 0.000D+00 0.000D+00 0.000D+00 0.000D+00 0.100D+01
 Coeff:      0.385D-02-0.739D-02-0.252D-01-0.603D-01-0.930D-01 0.118D+01
 Gap=     0.375 Goal=   None    Shift=    0.000
 RMSDP=4.60D-05 MaxDP=3.55D-04 DE=-1.48D-05 OVMax= 9.32D-04

 Cycle   7  Pass 0  IDiag  1:
 E= -93.2670977120957     Delta-E=       -0.000001505557 Rises=F Damp=F
 DIIS: error= 4.20D-05 at cycle   7 NSaved=   7.
 NSaved= 7 IEnMin= 7 EnMin= -93.2670977120957     IErMin= 7 ErrMin= 4.20D-05
 ErrMax= 4.20D-05  0.00D+00 EMaxC= 1.00D-01 BMatC= 2.69D-08 BMatP= 2.75D-07
 IDIUse=1 WtCom= 1.00D+00 WtEn= 0.00D+00
 Coeff-Com: -0.153D-02 0.315D-02 0.808D-02 0.108D-01-0.745D-01-0.373D+00
 Coeff-Com:  0.143D+01
 Coeff:     -0.153D-02 0.315D-02 0.808D-02 0.108D-01-0.745D-01-0.373D+00
 Coeff:      0.143D+01
 Gap=     0.375 Goal=   None    Shift=    0.000
 RMSDP=2.04D-05 MaxDP=1.68D-04 DE=-1.51D-06 OVMax= 4.05D-04

 Cycle   8  Pass 0  IDiag  1:
 E= -93.2670979214639     Delta-E=       -0.000000209368 Rises=F Damp=F
 DIIS: error= 9.96D-06 at cycle   8 NSaved=   8.
 NSaved= 8 IEnMin= 8 EnMin= -93.2670979214639     IErMin= 8 ErrMin= 9.96D-06
 ErrMax= 9.96D-06  0.00D+00 EMaxC= 1.00D-01 BMatC= 1.35D-09 BMatP= 2.69D-08
 IDIUse=1 WtCom= 1.00D+00 WtEn= 0.00D+00
 Coeff-Com: -0.222D-03 0.421D-03 0.151D-02 0.389D-02 0.119D-01-0.632D-01
 Coeff-Com: -0.163D-01 0.106D+01
 Coeff:     -0.222D-03 0.421D-03 0.151D-02 0.389D-02 0.119D-01-0.632D-01
 Coeff:     -0.163D-01 0.106D+01
 Gap=     0.375 Goal=   None    Shift=    0.000
 RMSDP=3.20D-06 MaxDP=2.53D-05 DE=-2.09D-07 OVMax= 7.08D-05

 Initial convergence to 1.0D-05 achieved.  Increase integral accuracy.
 Cycle   9  Pass 1  IDiag  1:
 E= -93.2670965172847     Delta-E=        0.000001404179 Rises=F Damp=F
 DIIS: error= 3.38D-05 at cycle   1 NSaved=   1.
 NSaved= 1 IEnMin= 1 EnMin= -93.2670965172847     IErMin= 1 ErrMin= 3.38D-05
 ErrMax= 3.38D-05  0.00D+00 EMaxC= 1.00D-01 BMatC= 4.37D-08 BMatP= 4.37D-08
 IDIUse=1 WtCom= 1.00D+00 WtEn= 0.00D+00
 Coeff-Com:  0.100D+01
 Coeff:      0.100D+01
 Gap=     0.375 Goal=   None    Shift=    0.000
 RMSDP=3.20D-06 MaxDP=2.53D-05 DE= 1.40D-06 OVMax= 1.12D-04

 Cycle  10  Pass 1  IDiag  1:
 E= -93.2670965778543     Delta-E=       -0.000000060570 Rises=F Damp=F
 DIIS: error= 9.75D-06 at cycle   2 NSaved=   2.
 NSaved= 2 IEnMin= 2 EnMin= -93.2670965778543     IErMin= 2 ErrMin= 9.75D-06
 ErrMax= 9.75D-06  0.00D+00 EMaxC= 1.00D-01 BMatC= 2.13D-09 BMatP= 4.37D-08
 IDIUse=1 WtCom= 1.00D+00 WtEn= 0.00D+00
 Coeff-Com: -0.852D-01 0.109D+01
 Coeff:     -0.852D-01 0.109D+01
 Gap=     0.375 Goal=   None    Shift=    0.000
 RMSDP=3.02D-06 MaxDP=2.73D-05 DE=-6.06D-08 OVMax= 5.91D-05

 Cycle  11  Pass 1  IDiag  1:
 E= -93.2670965845793     Delta-E=       -0.000000006725 Rises=F Damp=F
 DIIS: error= 8.71D-06 at cycle   3 NSaved=   3.
 NSaved= 3 IEnMin= 3 EnMin= -93.2670965845793     IErMin= 3 ErrMin= 8.71D-06
 ErrMax= 8.71D-06  0.00D+00 EMaxC= 1.00D-01 BMatC= 1.73D-09 BMatP= 2.13D-09
 IDIUse=1 WtCom= 1.00D+00 WtEn= 0.00D+00
 Coeff-Com: -0.745D-01 0.542D+00 0.533D+00
 Coeff:     -0.745D-01 0.542D+00 0.533D+00
 Gap=     0.375 Goal=   None    Shift=    0.000
 RMSDP=1.35D-06 MaxDP=1.10D-05 DE=-6.73D-09 OVMax= 3.13D-05

 Cycle  12  Pass 1  IDiag  1:
 E= -93.2670965865937     Delta-E=       -0.000000002014 Rises=F Damp=F
 DIIS: error= 6.03D-06 at cycle   4 NSaved=   4.
 NSaved= 4 IEnMin= 4 EnMin= -93.2670965865937     IErMin= 4 ErrMin= 6.03D-06
 ErrMax= 6.03D-06  0.00D+00 EMaxC= 1.00D-01 BMatC= 6.76D-10 BMatP= 1.73D-09
 IDIUse=1 WtCom= 1.00D+00 WtEn= 0.00D+00
 Coeff-Com: -0.241D-01-0.909D-01 0.375D+00 0.740D+00
 Coeff:     -0.241D-01-0.909D-01 0.375D+00 0.740D+00
 Gap=     0.375 Goal=   None    Shift=    0.000
 RMSDP=1.01D-06 MaxDP=7.71D-06 DE=-2.01D-09 OVMax= 2.04D-05

 Cycle  13  Pass 1  IDiag  1:
 E= -93.2670965878888     Delta-E=       -0.000000001295 Rises=F Damp=F
 DIIS: error= 1.66D-06 at cycle   5 NSaved=   5.
 NSaved= 5 IEnMin= 5 EnMin= -93.2670965878888     IErMin= 5 ErrMin= 1.66D-06
 ErrMax= 1.66D-06  0.00D+00 EMaxC= 1.00D-01 BMatC= 3.00D-11 BMatP= 6.76D-10
 IDIUse=1 WtCom= 1.00D+00 WtEn= 0.00D+00
 Coeff-Com:  0.177D-01-0.127D+00-0.132D+00-0.914D-01 0.133D+01
 Coeff:      0.177D-01-0.127D+00-0.132D+00-0.914D-01 0.133D+01
 Gap=     0.375 Goal=   None    Shift=    0.000
 RMSDP=7.58D-07 MaxDP=6.32D-06 DE=-1.30D-09 OVMax= 2.05D-05

 Cycle  14  Pass 1  IDiag  1:
 E= -93.2670965881370     Delta-E=       -0.000000000248 Rises=F Damp=F
 DIIS: error= 2.38D-07 at cycle   6 NSaved=   6.
 NSaved= 6 IEnMin= 6 EnMin= -93.2670965881370     IErMin= 6 ErrMin= 2.38D-07
 ErrMax= 2.38D-07  0.00D+00 EMaxC= 1.00D-01 BMatC= 9.83D-13 BMatP= 3.00D-11
 IDIUse=1 WtCom= 1.00D+00 WtEn= 0.00D+00
 Coeff-Com: -0.242D-02 0.240D-01 0.163D-01 0.160D-01-0.287D+00 0.123D+01
 Coeff:     -0.242D-02 0.240D-01 0.163D-01 0.160D-01-0.287D+00 0.123D+01
 Gap=     0.375 Goal=   None    Shift=    0.000
 RMSDP=9.92D-08 MaxDP=8.00D-07 DE=-2.48D-10 OVMax= 2.32D-06

 Cycle  15  Pass 1  IDiag  1:
 E= -93.2670965881444     Delta-E=       -0.000000000007 Rises=F Damp=F
 DIIS: error= 1.17D-07 at cycle   7 NSaved=   7.
 NSaved= 7 IEnMin= 7 EnMin= -93.2670965881444     IErMin= 7 ErrMin= 1.17D-07
 ErrMax= 1.17D-07  0.00D+00 EMaxC= 1.00D-01 BMatC= 1.86D-13 BMatP= 9.83D-13
 IDIUse=1 WtCom= 1.00D+00 WtEn= 0.00D+00
 Coeff-Com: -0.896D-03 0.355D-02 0.709D-02 0.147D-01-0.729D-01-0.371D+00
 Coeff-Com:  0.142D+01
 Coeff:     -0.896D-03 0.355D-02 0.709D-02 0.147D-01-0.729D-01-0.371D+00
 Coeff:      0.142D+01
 Gap=     0.375 Goal=   None    Shift=    0.000
 RMSDP=5.16D-08 MaxDP=4.27D-07 DE=-7.40D-12 OVMax= 1.08D-06

 Cycle  16  Pass 1  IDiag  1:
 E= -93.2670965881460     Delta-E=       -0.000000000002 Rises=F Damp=F
 DIIS: error= 2.30D-08 at cycle   8 NSaved=   8.
 NSaved= 8 IEnMin= 8 EnMin= -93.2670965881460     IErMin= 8 ErrMin= 2.30D-08
 ErrMax= 2.30D-08  0.00D+00 EMaxC= 1.00D-01 BMatC= 7.24D-15 BMatP= 1.86D-13
 IDIUse=1 WtCom= 1.00D+00 WtEn= 0.00D+00
 Coeff-Com:  0.405D-03-0.305D-02-0.246D-02-0.168D-02 0.382D-01-0.292D-01
 Coeff-Com: -0.277D+00 0.127D+01
 Coeff:      0.405D-03-0.305D-02-0.246D-02-0.168D-02 0.382D-01-0.292D-01
 Coeff:     -0.277D+00 0.127D+01
 Gap=     0.375 Goal=   None    Shift=    0.000
 RMSDP=9.45D-09 MaxDP=7.09D-08 DE=-1.52D-12 OVMax= 1.95D-07

 SCF Done:  E(RwB97XD) =  -93.2670965881     A.U. after   16 cycles
            NFock= 16  Conv=0.94D-08     -V/T= 2.0148
 KE= 9.190517565339D+01 PE=-2.575415476352D+02 EE= 5.201621718651D+01
 Leave Link  502 at Wed Jul 17 10:14:21 2019, MaxMem=  1342177280 cpu:         6.8
 (Enter /soft/gaussian/09-e.01/g09/l508.exe)
 QCSCF skips out because SCF is already converged.
 Leave Link  508 at Wed Jul 17 10:14:21 2019, MaxMem=  1342177280 cpu:         0.0
 (Enter /soft/gaussian/09-e.01/g09/l601.exe)
 Copying SCF densities to generalized density rwf, IOpCl= 0 IROHF=0.

 **********************************************************************

            Population analysis using the SCF density.

 **********************************************************************

 Orbital symmetries:
       Occupied  (A') (A') (A') (A') (A') (A') (A")
       Virtual   (A') (A") (A') (A') (A') (A") (A') (A') (A') (A")
                 (A') (A') (A') (A") (A') (A") (A') (A") (A') (A')
                 (A") (A') (A') (A') (A')
 The electronic state is 1-A'.
 Alpha  occ. eigenvalues --  -14.50818 -10.44583  -0.97444  -0.67135  -0.48135
 Alpha  occ. eigenvalues --   -0.40469  -0.40111
 Alpha virt. eigenvalues --   -0.02639   0.01405   0.17943   0.31436   0.62514
 Alpha virt. eigenvalues --    0.63566   0.63862   0.68533   0.77432   0.81790
 Alpha virt. eigenvalues --    0.87836   0.97648   1.20205   1.50494   1.55450
 Alpha virt. eigenvalues --    1.65285   1.74486   1.86296   1.99603   2.20996
 Alpha virt. eigenvalues --    2.32955   2.39660   2.71444   3.66332   4.04094
          Condensed to atoms (all electrons):
               1          2          3
     1  C    5.399532   0.415442  -0.004359
     2  N    0.415442   6.884922   0.259621
     3  H   -0.004359   0.259621   0.374138
 Mulliken charges:
               1
     1  C    0.189384
     2  N   -0.559985
     3  H    0.370600
 Sum of Mulliken charges =  -0.00000
 Mulliken charges with hydrogens summed into heavy atoms:
               1
     1  C    0.189384
     2  N   -0.189384
 Electronic spatial extent (au):  <R**2>=             57.6792
 Charge=             -0.0000 electrons
 Dipole moment (field-independent basis, Debye):
    X=             -1.6834    Y=             -0.4131    Z=             -0.0000  Tot=              1.7334
 Quadrupole moment (field-independent basis, Debye-Ang):
   XX=            -10.2632   YY=            -12.8065   ZZ=            -12.3871
   XY=              1.6342   XZ=             -0.0000   YZ=              0.0000
 Traceless Quadrupole moment (field-independent basis, Debye-Ang):
   XX=              1.5558   YY=             -0.9876   ZZ=             -0.5682
   XY=              1.6342   XZ=             -0.0000   YZ=              0.0000
 Octapole moment (field-independent basis, Debye-Ang**2):
  XXX=             -2.4832  YYY=             -6.5277  ZZZ=             -0.0000  XYY=             -2.6156
  XXY=             -1.6213  XXZ=             -0.0000  XZZ=             -0.4863  YZZ=             -0.8064
  YYZ=             -0.0000  XYZ=             -0.0000
 Hexadecapole moment (field-independent basis, Debye-Ang**3):
 XXXX=            -11.8473 YYYY=            -57.7838 ZZZZ=            -11.9170 XXXY=              0.0697
 XXXZ=             -0.0000 YYYX=             -0.3351 YYYZ=              0.0000 ZZZX=             -0.0000
 ZZZY=              0.0000 XXYY=             -9.6690 XXZZ=             -4.1865 YYZZ=            -11.0735
 XXYZ=              0.0000 YYXZ=             -0.0000 ZZXY=             -0.4467
 N-N= 2.035305820716D+01 E-N=-2.575415477529D+02  KE= 9.190517565339D+01
 Symmetry A'   KE= 8.914901458789D+01
 Symmetry A"   KE= 2.756161065494D+00
 No NMR shielding tensors so no spin-rotation constants.
 Leave Link  601 at Wed Jul 17 10:14:22 2019, MaxMem=  1342177280 cpu:         2.1
 (Enter /soft/gaussian/09-e.01/g09/l701.exe)
 Compute integral first derivatives.
 ... and contract with generalized density number  0.
 R6Disp: Adding Grimme-D2 dispersion energy 1st derivatives to the gradient.
 Leave Link  701 at Wed Jul 17 10:14:22 2019, MaxMem=  1342177280 cpu:         2.3
 (Enter /soft/gaussian/09-e.01/g09/l702.exe)
 L702 exits ... SP integral derivatives will be done elsewhere.
 Leave Link  702 at Wed Jul 17 10:14:22 2019, MaxMem=  1342177280 cpu:         0.3
 (Enter /soft/gaussian/09-e.01/g09/l703.exe)
 Compute integral first derivatives, UseDBF=F ICtDFT=           0.
 Integral derivatives from FoFJK, PRISM(SPDF).
 Calling FoFJK, ICntrl=      2127 FMM=F ISym2X=1 I1Cent= 0 IOpClX= 0 NMat=1 NMatS=1 NMatT=0.
 FoFJK:  IHMeth= 1 ICntrl=    2127 DoSepK=T KAlg= 0 I1Cent=   0 FoldK=F
 IRaf=         1 NMat=   1 IRICut=       1 DoRegI=T DoRafI=F ISym2E= 1.
 FoFCou: FMM=F IPFlag=           0 FMFlag=      100000 FMFlg1=         800
         NFxFlg=           0 DoJE=F BraDBF=F KetDBF=F FulRan=T
         wScrn=  0.000000 ICntrl=    2527 IOpCl=  0 I1Cent=           0 NGrid=           0
         NMat0=    1 NMatS0=      1 NMatT0=    0 NMatD0=    1 NMtDS0=    0 NMtDT0=    0
 Petite list used in FoFCou.
 Leave Link  703 at Wed Jul 17 10:14:24 2019, MaxMem=  1342177280 cpu:         5.2
 (Enter /soft/gaussian/09-e.01/g09/l716.exe)
 Dipole        =-6.62298173D-01-1.62545374D-01-5.57921259D-50
 ***** Axes restored to original set *****
 -------------------------------------------------------------------
 Center     Atomic                   Forces (Hartrees/Bohr)
 Number     Number              X              Y              Z
 -------------------------------------------------------------------
      1        6          -0.002637516    0.000000000    0.228062322
      2        7           0.003555934   -0.000000000   -0.231741322
      3        1          -0.000918418    0.000000000    0.003679000
 -------------------------------------------------------------------
 Cartesian Forces:  Max     0.231741322 RMS     0.108397644
 -----------------------------------------------------------------------------------------------
                       Internal Coordinate Forces (Hartree/Bohr or radian)
  Cent   Atom   N1       Length/X         N2         Alpha/Y        N3         Beta/Z          J
 -----------------------------------------------------------------------------------------------
      1  C 
      2  N        1  -0.228062(     1)
      3  H        2   0.000494(     2)      1   0.007289(     3)
 -----------------------------------------------------------------------------------------------
 Internal  Forces:  Max     0.228062322 RMS     0.131739391
 Force constants in Cartesian coordinates: 
                1             2             3             4             5 
      1  0.209816D-01
      2  0.000000D+00  0.100000D+01
      3  0.000000D+00  0.000000D+00  0.368012D+00
      4 -0.319340D-01  0.000000D+00  0.000000D+00  0.424258D+00
      5  0.000000D+00  0.000000D+00  0.000000D+00  0.000000D+00  0.100000D+01
      6  0.278042D-01  0.000000D+00 -0.368012D+00  0.105656D+00  0.000000D+00
      7  0.109524D-01  0.000000D+00  0.000000D+00 -0.392324D+00  0.000000D+00
      8  0.000000D+00  0.000000D+00  0.000000D+00  0.000000D+00  0.000000D+00
      9 -0.278042D-01  0.000000D+00  0.000000D+00 -0.105656D+00  0.000000D+00
                6             7             8             9 
      6  0.463146D+00
      7 -0.133460D+00  0.381371D+00
      8  0.000000D+00  0.000000D+00  0.100000D+01
      9 -0.951339D-01  0.133460D+00  0.000000D+00  0.951339D-01
 Force constants in internal coordinates: 
                1             2             3 
      1  0.368012D+00
      2  0.000000D+00  0.433943D+00
      3  0.000000D+00  0.000000D+00  0.160000D+00
 Leave Link  716 at Wed Jul 17 10:14:25 2019, MaxMem=  1342177280 cpu:         0.4
 (Enter /soft/gaussian/09-e.01/g09/l103.exe)

 GradGradGradGradGradGradGradGradGradGradGradGradGradGradGradGradGradGrad
 Berny optimization.
 Search for a local minimum.
 Step number   1 out of a maximum of   20
 All quantities printed in internal units (Hartrees-Bohrs-Radians)
 Second derivative matrix not updated -- first step.
 The second derivative matrix:
                          R1        R2        A2
           R1           0.36801
           R2          -0.00000   0.43394
           A2           0.00000   0.00000   0.16000
 ITU=  0
     Eigenvalues ---    0.16000   0.36801   0.43394
 RFO step:  Lambda=-1.09191990D-01 EMin= 1.60000000D-01
 Linear search not attempted -- first point.
 Maximum step size (   0.300) exceeded in Quadratic search.
    -- Step size scaled by   0.627
 Variable       Old X    -DE/DX   Delta X   Delta X   Delta X     New X
                                 (Linear)    (Quad)   (Total)
    R1        2.76147  -0.22806   0.00000  -0.29952  -0.29952   2.46195
    R2        1.93886   0.00049   0.00000   0.00057   0.00057   1.93943
    A2        1.94604   0.00729   0.00000   0.01697   0.01697   1.96301
         Item               Value     Threshold  Converged?
 Maximum Force            0.228062     0.000450     NO 
 RMS     Force            0.131739     0.000300     NO 
 Maximum Displacement     0.299519     0.001800     NO 
 RMS     Displacement     0.173205     0.001200     NO 
 Predicted change in Energy=-5.190241D-02
 Lowest energy point so far.  Saving SCF results.
 GradGradGradGradGradGradGradGradGradGradGradGradGradGradGradGradGradGrad

 Leave Link  103 at Wed Jul 17 10:14:25 2019, MaxMem=  1342177280 cpu:         1.5
 (Enter /soft/gaussian/09-e.01/g09/l202.exe)
 ---------------------------------------------------------------------------------------------------
                            Z-MATRIX (ANGSTROMS AND DEGREES)
   CD    Cent   Atom    N1       Length/X        N2       Alpha/Y        N3        Beta/Z          J
 ---------------------------------------------------------------------------------------------------
      1      1  C 
      2      2  N        1   1.302808(     1)
      3      3  H        2   1.026303(     2)      1  112.472(     3)
 ---------------------------------------------------------------------------------------------------
                         Z-Matrix orientation:                         
 ---------------------------------------------------------------------
 Center     Atomic      Atomic             Coordinates (Angstroms)
 Number     Number       Type             X           Y           Z
 ---------------------------------------------------------------------
      1          6           0        0.000000    0.000000    0.000000
      2          7           0        0.000000    0.000000    1.302808
      3          1           0        0.948369    0.000000    1.695100
 ---------------------------------------------------------------------
                    Distance matrix (angstroms):
                    1          2          3
     1  C    0.000000
     2  N    1.302808   0.000000
     3  H    1.942361   1.026303   0.000000
 Stoichiometry    CHN
 Framework group  CS[SG(CHN)]
 Deg. of freedom     3
 Full point group                 CS      NOp   2
 RotChk:  IX=0 Diff= 1.99D-15
 Largest Abelian subgroup         CS      NOp   2
 Largest concise Abelian subgroup C1      NOp   1
                         Standard orientation:                         
 ---------------------------------------------------------------------
 Center     Atomic      Atomic             Coordinates (Angstroms)
 Number     Number       Type             X           Y           Z
 ---------------------------------------------------------------------
      1          6           0        0.067741    0.772483   -0.000000
      2          7           0        0.067741   -0.530326   -0.000000
      3          1           0       -0.880629   -0.922617    0.000000
 ---------------------------------------------------------------------
 Rotational constants (GHZ):    633.6831157     42.1109922     39.4869154
 Leave Link  202 at Wed Jul 17 10:14:25 2019, MaxMem=  1342177280 cpu:         0.2
 (Enter /soft/gaussian/09-e.01/g09/l301.exe)
 Standard basis: 6-31G(d) (6D, 7F)
 Ernie: Thresh=  0.10000D-02 Tol=  0.10000D-05 Strict=F.
 There are    24 symmetry adapted cartesian basis functions of A'  symmetry.
 There are     8 symmetry adapted cartesian basis functions of A"  symmetry.
 There are    24 symmetry adapted basis functions of A'  symmetry.
 There are     8 symmetry adapted basis functions of A"  symmetry.
    32 basis functions,    60 primitive gaussians,    32 cartesian basis functions
     7 alpha electrons        7 beta electrons
       nuclear repulsion energy        22.3035885270 Hartrees.
 IExCor= 4639 DFT=T Ex+Corr=wB97XD ExCW=0 ScaHFX=  1.000000
 ScaDFX=  1.000000  1.000000  1.000000  1.000000 ScalE2=  1.000000  1.000000
 IRadAn=      5 IRanWt=     -1 IRanGd=            0 ICorTp=0 IEmpDi=121
  HFx wShort=  0.000000 wLong=  0.200000 cFull=  0.222036 cShort=  0.000000 cLong=  0.777964
  DFx wShort=  0.000000 wLong=  0.200000 cFull=  0.000000 cShort=  0.000000 cLong=  1.000000
 NAtoms=    3 NActive=    3 NUniq=    3 SFac= 1.00D+00 NAtFMM=   60 NAOKFM=F Big=F
 Integral buffers will be    131072 words long.
 Raffenetti 2 integral format.
 Two-electron integral symmetry is turned on.
 R6Disp:  Grimme-D2 Dispersion energy=       -0.0000376366 Hartrees.
 Nuclear repulsion after empirical dispersion term =       22.3035508903 Hartrees.
 Leave Link  301 at Wed Jul 17 10:14:25 2019, MaxMem=  1342177280 cpu:         0.5
 (Enter /soft/gaussian/09-e.01/g09/l302.exe)
 NPDir=0 NMtPBC=     1 NCelOv=     1 NCel=       1 NClECP=     1 NCelD=      1
         NCelK=      1 NCelE2=     1 NClLst=     1 CellRange=     0.0.
 One-electron integrals computed using PRISM.
 NBasis=    32 RedAO= T EigKep=  1.35D-02  NBF=    24     8
 NBsUse=    32 1.00D-06 EigRej= -1.00D+00 NBFU=    24     8
 Precomputing XC quadrature grid using
 IXCGrd= 4 IRadAn=           5 IRanWt=          -1 IRanGd=           0 AccXCQ= 0.00D+00.
 Generated NRdTot=       0 NPtTot=           0 NUsed=           0 NTot=          32
 NSgBfM=    32    32    32    32    32 MxSgAt=     3 MxSgA2=     3.
 Leave Link  302 at Wed Jul 17 10:14:25 2019, MaxMem=  1342177280 cpu:         1.6
 (Enter /soft/gaussian/09-e.01/g09/l303.exe)
 DipDrv:  MaxL=1.
 Leave Link  303 at Wed Jul 17 10:14:25 2019, MaxMem=  1342177280 cpu:         0.2
 (Enter /soft/gaussian/09-e.01/g09/l401.exe)
 Initial guess from the checkpoint file:  "/scratch/sjklipp/Gau-122789.chk"
 B after Tr=    -0.000000    0.000000    0.000000
         Rot=    0.999996   -0.000000    0.000000    0.002785 Ang=   0.32 deg.
 Guess basis will be translated and rotated to current coordinates.
 JPrj=2 DoOrth=T DoCkMO=T.
 Initial guess orbital symmetries:
       Occupied  (A') (A') (A') (A') (A') (A') (A")
       Virtual   (A') (A') (A') (A') (A') (A') (A') (A') (A') (A')
                 (A') (A') (A') (A') (A') (A') (A') (A') (A") (A")
                 (A") (A") (A") (A") (A")
 The electronic state of the initial guess is 1-A'.
 Generating alternative initial guess.
 ExpMin= 1.61D-01 ExpMax= 4.17D+03 ExpMxC= 6.27D+02 IAcc=2 IRadAn=         4 AccDes= 0.00D+00
 Harris functional with IExCor= 4639 and IRadAn=       4 diagonalized for initial guess.
 HarFok:  IExCor= 4639 AccDes= 0.00D+00 IRadAn=         4 IDoV= 1 UseB2=F ITyADJ=14
 ICtDFT=  3500011 ScaDFX=  1.000000  1.000000  1.000000  1.000000
 FoFCou: FMM=F IPFlag=           0 FMFlag=      100000 FMFlg1=           0
         NFxFlg=           0 DoJE=T BraDBF=F KetDBF=T FulRan=T
         wScrn=  0.000000 ICntrl=     500 IOpCl=  0 I1Cent=   200000004 NGrid=           0
         NMat0=    1 NMatS0=      1 NMatT0=    0 NMatD0=    1 NMtDS0=    0 NMtDT0=    0
 Petite list used in FoFCou.
 Harris En= -89.5157158836543    
 Leave Link  401 at Wed Jul 17 10:14:25 2019, MaxMem=  1342177280 cpu:         2.2
 (Enter /soft/gaussian/09-e.01/g09/l502.exe)
 Closed shell SCF:
 Using DIIS extrapolation, IDIIS=  1040.
 Integral symmetry usage will be decided dynamically.
 Keep R1 ints in memory in symmetry-blocked form, NReq=1152844.
 IVT=        9588 IEndB=        9588 NGot=  1342177280 MDV=  1342091077
 LenX=  1342091077 LenY=  1342089612
 Requested convergence on RMS density matrix=1.00D-08 within  64 cycles.
 Requested convergence on MAX density matrix=1.00D-06.
 Requested convergence on             energy=1.00D-06.
 No special actions if energy rises.
 FoFCou: FMM=F IPFlag=           0 FMFlag=           0 FMFlg1=           0
         NFxFlg=           0 DoJE=F BraDBF=F KetDBF=F FulRan=T
         wScrn=  0.000000 ICntrl=     600 IOpCl=  0 I1Cent=           0 NGrid=           0
         NMat0=    1 NMatS0=    528 NMatT0=    0 NMatD0=    1 NMtDS0=    0 NMtDT0=    0
 Petite list used in FoFCou.
 Integral accuracy reduced to 1.0D-05 until final iterations.

 Cycle   1  Pass 0  IDiag  1:
 E= -93.3169405305065    
 DIIS: error= 9.66D-03 at cycle   1 NSaved=   1.
 NSaved= 1 IEnMin= 1 EnMin= -93.3169405305065     IErMin= 1 ErrMin= 9.66D-03
 ErrMax= 9.66D-03  0.00D+00 EMaxC= 1.00D-01 BMatC= 6.20D-03 BMatP= 6.20D-03
 IDIUse=3 WtCom= 9.03D-01 WtEn= 9.66D-02
 Coeff-Com:  0.100D+01
 Coeff-En:   0.100D+01
 Coeff:      0.100D+01
 Gap=     1.269 Goal=   None    Shift=    0.000
 GapD=    1.269 DampG=2.000 DampE=1.000 DampFc=2.0000 IDamp=-1.
 RMSDP=3.44D-03 MaxDP=2.31D-02              OVMax= 3.04D-02

 Cycle   2  Pass 0  IDiag  1:
 E= -93.3250023106779     Delta-E=       -0.008061780171 Rises=F Damp=F
 DIIS: error= 4.35D-03 at cycle   2 NSaved=   2.
 NSaved= 2 IEnMin= 2 EnMin= -93.3250023106779     IErMin= 2 ErrMin= 4.35D-03
 ErrMax= 4.35D-03  0.00D+00 EMaxC= 1.00D-01 BMatC= 1.23D-03 BMatP= 6.20D-03
 IDIUse=3 WtCom= 9.57D-01 WtEn= 4.35D-02
 Coeff-Com:  0.206D+00 0.794D+00
 Coeff-En:   0.000D+00 0.100D+01
 Coeff:      0.197D+00 0.803D+00
 Gap=     0.414 Goal=   None    Shift=    0.000
 RMSDP=1.28D-03 MaxDP=1.29D-02 DE=-8.06D-03 OVMax= 1.77D-02

 Cycle   3  Pass 0  IDiag  1:
 E= -93.3255626725088     Delta-E=       -0.000560361831 Rises=F Damp=F
 DIIS: error= 6.27D-03 at cycle   3 NSaved=   3.
 NSaved= 3 IEnMin= 3 EnMin= -93.3255626725088     IErMin= 2 ErrMin= 4.35D-03
 ErrMax= 6.27D-03  0.00D+00 EMaxC= 1.00D-01 BMatC= 7.48D-04 BMatP= 1.23D-03
 IDIUse=3 WtCom= 9.37D-01 WtEn= 6.27D-02
 Coeff-Com: -0.261D-01 0.429D+00 0.597D+00
 Coeff-En:   0.000D+00 0.305D+00 0.695D+00
 Coeff:     -0.244D-01 0.421D+00 0.603D+00
 Gap=     0.415 Goal=   None    Shift=    0.000
 RMSDP=7.81D-04 MaxDP=8.76D-03 DE=-5.60D-04 OVMax= 1.45D-02

 Cycle   4  Pass 0  IDiag  1:
 E= -93.3261441963428     Delta-E=       -0.000581523834 Rises=F Damp=F
 DIIS: error= 2.04D-03 at cycle   4 NSaved=   4.
 NSaved= 4 IEnMin= 4 EnMin= -93.3261441963428     IErMin= 4 ErrMin= 2.04D-03
 ErrMax= 2.04D-03  0.00D+00 EMaxC= 1.00D-01 BMatC= 1.06D-04 BMatP= 7.48D-04
 IDIUse=3 WtCom= 9.80D-01 WtEn= 2.04D-02
 Coeff-Com: -0.417D-01 0.623D-01 0.319D+00 0.660D+00
 Coeff-En:   0.000D+00 0.000D+00 0.821D-01 0.918D+00
 Coeff:     -0.408D-01 0.610D-01 0.314D+00 0.666D+00
 Gap=     0.415 Goal=   None    Shift=    0.000
 RMSDP=2.73D-04 MaxDP=2.62D-03 DE=-5.82D-04 OVMax= 5.07D-03

 Cycle   5  Pass 0  IDiag  1:
 E= -93.3262558103485     Delta-E=       -0.000111614006 Rises=F Damp=F
 DIIS: error= 3.17D-04 at cycle   5 NSaved=   5.
 NSaved= 5 IEnMin= 5 EnMin= -93.3262558103485     IErMin= 5 ErrMin= 3.17D-04
 ErrMax= 3.17D-04  0.00D+00 EMaxC= 1.00D-01 BMatC= 9.76D-07 BMatP= 1.06D-04
 IDIUse=3 WtCom= 9.97D-01 WtEn= 3.17D-03
 Coeff-Com:  0.118D-01-0.402D-01-0.112D+00-0.135D+00 0.127D+01
 Coeff-En:   0.000D+00 0.000D+00 0.000D+00 0.000D+00 0.100D+01
 Coeff:      0.118D-01-0.401D-01-0.111D+00-0.134D+00 0.127D+01
 Gap=     0.415 Goal=   None    Shift=    0.000
 RMSDP=9.49D-05 MaxDP=9.15D-04 DE=-1.12D-04 OVMax= 1.40D-03

 Cycle   6  Pass 0  IDiag  1:
 E= -93.3262601122965     Delta-E=       -0.000004301948 Rises=F Damp=F
 DIIS: error= 5.01D-05 at cycle   6 NSaved=   6.
 NSaved= 6 IEnMin= 6 EnMin= -93.3262601122965     IErMin= 6 ErrMin= 5.01D-05
 ErrMax= 5.01D-05  0.00D+00 EMaxC= 1.00D-01 BMatC= 5.65D-08 BMatP= 9.76D-07
 IDIUse=1 WtCom= 1.00D+00 WtEn= 0.00D+00
 Coeff-Com:  0.867D-03 0.580D-03-0.134D-02-0.207D-01-0.187D+00 0.121D+01
 Coeff:      0.867D-03 0.580D-03-0.134D-02-0.207D-01-0.187D+00 0.121D+01
 Gap=     0.415 Goal=   None    Shift=    0.000
 RMSDP=2.02D-05 MaxDP=1.50D-04 DE=-4.30D-06 OVMax= 3.98D-04

 Cycle   7  Pass 0  IDiag  1:
 E= -93.3262603707441     Delta-E=       -0.000000258448 Rises=F Damp=F
 DIIS: error= 1.01D-05 at cycle   7 NSaved=   7.
 NSaved= 7 IEnMin= 7 EnMin= -93.3262603707441     IErMin= 7 ErrMin= 1.01D-05
 ErrMax= 1.01D-05  0.00D+00 EMaxC= 1.00D-01 BMatC= 2.93D-09 BMatP= 5.65D-08
 IDIUse=1 WtCom= 1.00D+00 WtEn= 0.00D+00
 Coeff-Com: -0.731D-03 0.272D-02 0.796D-02 0.779D-02-0.981D-01 0.112D+00
 Coeff-Com:  0.968D+00
 Coeff:     -0.731D-03 0.272D-02 0.796D-02 0.779D-02-0.981D-01 0.112D+00
 Coeff:      0.968D+00
 Gap=     0.415 Goal=   None    Shift=    0.000
 RMSDP=3.78D-06 MaxDP=2.97D-05 DE=-2.58D-07 OVMax= 6.82D-05

 Initial convergence to 1.0D-05 achieved.  Increase integral accuracy.
 Cycle   8  Pass 1  IDiag  1:
 E= -93.3262682599533     Delta-E=       -0.000007889209 Rises=F Damp=F
 DIIS: error= 4.38D-05 at cycle   1 NSaved=   1.
 NSaved= 1 IEnMin= 1 EnMin= -93.3262682599533     IErMin= 1 ErrMin= 4.38D-05
 ErrMax= 4.38D-05  0.00D+00 EMaxC= 1.00D-01 BMatC= 5.65D-08 BMatP= 5.65D-08
 IDIUse=1 WtCom= 1.00D+00 WtEn= 0.00D+00
 Coeff-Com:  0.100D+01
 Coeff:      0.100D+01
 Gap=     0.415 Goal=   None    Shift=    0.000
 RMSDP=3.78D-06 MaxDP=2.97D-05 DE=-7.89D-06 OVMax= 9.37D-05

 Cycle   9  Pass 1  IDiag  1:
 E= -93.3262683282551     Delta-E=       -0.000000068302 Rises=F Damp=F
 DIIS: error= 8.98D-06 at cycle   2 NSaved=   2.
 NSaved= 2 IEnMin= 2 EnMin= -93.3262683282551     IErMin= 2 ErrMin= 8.98D-06
 ErrMax= 8.98D-06  0.00D+00 EMaxC= 1.00D-01 BMatC= 2.32D-09 BMatP= 5.65D-08
 IDIUse=1 WtCom= 1.00D+00 WtEn= 0.00D+00
 Coeff-Com: -0.750D-01 0.107D+01
 Coeff:     -0.750D-01 0.107D+01
 Gap=     0.415 Goal=   None    Shift=    0.000
 RMSDP=2.89D-06 MaxDP=2.52D-05 DE=-6.83D-08 OVMax= 4.72D-05

 Cycle  10  Pass 1  IDiag  1:
 E= -93.3262683328345     Delta-E=       -0.000000004579 Rises=F Damp=F
 DIIS: error= 8.43D-06 at cycle   3 NSaved=   3.
 NSaved= 3 IEnMin= 3 EnMin= -93.3262683328345     IErMin= 3 ErrMin= 8.43D-06
 ErrMax= 8.43D-06  0.00D+00 EMaxC= 1.00D-01 BMatC= 1.61D-09 BMatP= 2.32D-09
 IDIUse=1 WtCom= 1.00D+00 WtEn= 0.00D+00
 Coeff-Com: -0.675D-01 0.506D+00 0.562D+00
 Coeff:     -0.675D-01 0.506D+00 0.562D+00
 Gap=     0.415 Goal=   None    Shift=    0.000
 RMSDP=1.19D-06 MaxDP=1.14D-05 DE=-4.58D-09 OVMax= 2.04D-05

 Cycle  11  Pass 1  IDiag  1:
 E= -93.3262683343880     Delta-E=       -0.000000001554 Rises=F Damp=F
 DIIS: error= 3.90D-06 at cycle   4 NSaved=   4.
 NSaved= 4 IEnMin= 4 EnMin= -93.3262683343880     IErMin= 4 ErrMin= 3.90D-06
 ErrMax= 3.90D-06  0.00D+00 EMaxC= 1.00D-01 BMatC= 4.13D-10 BMatP= 1.61D-09
 IDIUse=1 WtCom= 1.00D+00 WtEn= 0.00D+00
 Coeff-Com: -0.254D-01 0.145D-01 0.325D+00 0.685D+00
 Coeff:     -0.254D-01 0.145D-01 0.325D+00 0.685D+00
 Gap=     0.415 Goal=   None    Shift=    0.000
 RMSDP=6.15D-07 MaxDP=4.25D-06 DE=-1.55D-09 OVMax= 9.40D-06

 Cycle  12  Pass 1  IDiag  1:
 E= -93.3262683349296     Delta-E=       -0.000000000542 Rises=F Damp=F
 DIIS: error= 9.24D-07 at cycle   5 NSaved=   5.
 NSaved= 5 IEnMin= 5 EnMin= -93.3262683349296     IErMin= 5 ErrMin= 9.24D-07
 ErrMax= 9.24D-07  0.00D+00 EMaxC= 1.00D-01 BMatC= 1.33D-11 BMatP= 4.13D-10
 IDIUse=1 WtCom= 1.00D+00 WtEn= 0.00D+00
 Coeff-Com:  0.113D-01-0.810D-01-0.113D+00-0.135D+00 0.132D+01
 Coeff:      0.113D-01-0.810D-01-0.113D+00-0.135D+00 0.132D+01
 Gap=     0.415 Goal=   None    Shift=    0.000
 RMSDP=4.30D-07 MaxDP=3.60D-06 DE=-5.42D-10 OVMax= 1.00D-05

 Cycle  13  Pass 1  IDiag  1:
 E= -93.3262683350082     Delta-E=       -0.000000000079 Rises=F Damp=F
 DIIS: error= 1.33D-07 at cycle   6 NSaved=   6.
 NSaved= 6 IEnMin= 6 EnMin= -93.3262683350082     IErMin= 6 ErrMin= 1.33D-07
 ErrMax= 1.33D-07  0.00D+00 EMaxC= 1.00D-01 BMatC= 2.78D-13 BMatP= 1.33D-11
 IDIUse=1 WtCom= 1.00D+00 WtEn= 0.00D+00
 Coeff-Com: -0.716D-03 0.100D-01 0.181D-02-0.908D-02-0.134D+00 0.113D+01
 Coeff:     -0.716D-03 0.100D-01 0.181D-02-0.908D-02-0.134D+00 0.113D+01
 Gap=     0.415 Goal=   None    Shift=    0.000
 RMSDP=5.23D-08 MaxDP=3.29D-07 DE=-7.86D-11 OVMax= 1.19D-06

 Cycle  14  Pass 1  IDiag  1:
 E= -93.3262683350098     Delta-E=       -0.000000000002 Rises=F Damp=F
 DIIS: error= 4.11D-08 at cycle   7 NSaved=   7.
 NSaved= 7 IEnMin= 7 EnMin= -93.3262683350098     IErMin= 7 ErrMin= 4.11D-08
 ErrMax= 4.11D-08  0.00D+00 EMaxC= 1.00D-01 BMatC= 2.97D-14 BMatP= 2.78D-13
 IDIUse=1 WtCom= 1.00D+00 WtEn= 0.00D+00
 Coeff-Com: -0.491D-03 0.230D-02 0.528D-02 0.102D-01-0.569D-01-0.214D+00
 Coeff-Com:  0.125D+01
 Coeff:     -0.491D-03 0.230D-02 0.528D-02 0.102D-01-0.569D-01-0.214D+00
 Coeff:      0.125D+01
 Gap=     0.415 Goal=   None    Shift=    0.000
 RMSDP=1.75D-08 MaxDP=1.19D-07 DE=-1.62D-12 OVMax= 3.74D-07

 Cycle  15  Pass 1  IDiag  1:
 E= -93.3262683350099     Delta-E=       -0.000000000000 Rises=F Damp=F
 DIIS: error= 1.14D-08 at cycle   8 NSaved=   8.
 NSaved= 8 IEnMin= 8 EnMin= -93.3262683350099     IErMin= 8 ErrMin= 1.14D-08
 ErrMax= 1.14D-08  0.00D+00 EMaxC= 1.00D-01 BMatC= 2.08D-15 BMatP= 2.97D-14
 IDIUse=1 WtCom= 1.00D+00 WtEn= 0.00D+00
 Coeff-Com:  0.195D-03-0.147D-02-0.135D-02-0.611D-03 0.241D-01-0.690D-02
 Coeff-Com: -0.386D+00 0.137D+01
 Coeff:      0.195D-03-0.147D-02-0.135D-02-0.611D-03 0.241D-01-0.690D-02
 Coeff:     -0.386D+00 0.137D+01
 Gap=     0.415 Goal=   None    Shift=    0.000
 RMSDP=4.46D-09 MaxDP=3.79D-08 DE=-1.14D-13 OVMax= 8.86D-08

 SCF Done:  E(RwB97XD) =  -93.3262683350     A.U. after   15 cycles
            NFock= 15  Conv=0.45D-08     -V/T= 2.0122
 KE= 9.219686623775D+01 PE=-2.617148151290D+02 EE= 5.388812966594D+01
 Leave Link  502 at Wed Jul 17 10:14:26 2019, MaxMem=  1342177280 cpu:         4.9
 (Enter /soft/gaussian/09-e.01/g09/l508.exe)
 QCSCF skips out because SCF is already converged.
 Leave Link  508 at Wed Jul 17 10:14:26 2019, MaxMem=  1342177280 cpu:         0.0
 (Enter /soft/gaussian/09-e.01/g09/l701.exe)
 Compute integral first derivatives.
 ... and contract with generalized density number  0.
 R6Disp: Adding Grimme-D2 dispersion energy 1st derivatives to the gradient.
 Leave Link  701 at Wed Jul 17 10:14:26 2019, MaxMem=  1342177280 cpu:         1.6
 (Enter /soft/gaussian/09-e.01/g09/l702.exe)
 L702 exits ... SP integral derivatives will be done elsewhere.
 Leave Link  702 at Wed Jul 17 10:14:26 2019, MaxMem=  1342177280 cpu:         0.2
 (Enter /soft/gaussian/09-e.01/g09/l703.exe)
 Compute integral first derivatives, UseDBF=F ICtDFT=           0.
 Integral derivatives from FoFJK, PRISM(SPDF).
 Calling FoFJK, ICntrl=      2127 FMM=F ISym2X=1 I1Cent= 0 IOpClX= 0 NMat=1 NMatS=1 NMatT=0.
 FoFJK:  IHMeth= 1 ICntrl=    2127 DoSepK=T KAlg= 0 I1Cent=   0 FoldK=F
 IRaf=         1 NMat=   1 IRICut=       1 DoRegI=T DoRafI=F ISym2E= 1.
 FoFCou: FMM=F IPFlag=           0 FMFlag=      100000 FMFlg1=         800
         NFxFlg=           0 DoJE=F BraDBF=F KetDBF=F FulRan=T
         wScrn=  0.000000 ICntrl=    2527 IOpCl=  0 I1Cent=           0 NGrid=           0
         NMat0=    1 NMatS0=      1 NMatT0=    0 NMatD0=    1 NMtDS0=    0 NMtDT0=    0
 Petite list used in FoFCou.
 Leave Link  703 at Wed Jul 17 10:14:27 2019, MaxMem=  1342177280 cpu:         3.4
 (Enter /soft/gaussian/09-e.01/g09/l716.exe)
 Dipole        =-6.67599568D-01-3.74237106D-01 1.36495338D-31
 ***** Axes restored to original set *****
 -------------------------------------------------------------------
 Center     Atomic                   Forces (Hartrees/Bohr)
 Number     Number              X              Y              Z
 -------------------------------------------------------------------
      1        6          -0.008783375   -0.000000000    0.146033778
      2        7           0.015402784    0.000000000   -0.155362129
      3        1          -0.006619410   -0.000000000    0.009328350
 -------------------------------------------------------------------
 Cartesian Forces:  Max     0.155362129 RMS     0.071420884
 -----------------------------------------------------------------------------------------------
                       Internal Coordinate Forces (Hartree/Bohr or radian)
  Cent   Atom   N1       Length/X         N2         Alpha/Y        N3         Beta/Z          J
 -----------------------------------------------------------------------------------------------
      1  C 
      2  N        1  -0.146034(     1)
      3  H        2  -0.002551(     2)      1   0.021625(     3)
 -----------------------------------------------------------------------------------------------
 Internal  Forces:  Max     0.146033778 RMS     0.085244772
 Leave Link  716 at Wed Jul 17 10:14:27 2019, MaxMem=  1342177280 cpu:         0.3
 (Enter /soft/gaussian/09-e.01/g09/l103.exe)

 GradGradGradGradGradGradGradGradGradGradGradGradGradGradGradGradGradGrad
 Berny optimization.
 Search for a local minimum.
 Step number   2 out of a maximum of   20
 All quantities printed in internal units (Hartrees-Bohrs-Radians)
 Update second derivatives using D2CorN and points    1    2
 DE= -5.92D-02 DEPred=-5.19D-02 R= 1.14D+00
 TightC=F SS=  1.41D+00  RLast= 3.00D-01 DXNew= 5.0454D-01 9.0000D-01
 Trust test= 1.14D+00 RLast= 3.00D-01 DXMaxT set to 5.05D-01
 The second derivative matrix:
                          R1        R2        A2
           R1           0.27417
           R2          -0.00457   0.43396
           A2           0.03103   0.00021   0.15678
 ITU=  1  0
     Eigenvalues ---    0.14908   0.28174   0.43409
 RFO step:  Lambda=-4.48677235D-03 EMin= 1.49080400D-01
 Quartic linear search produced a step of  0.70167.
 Variable       Old X    -DE/DX   Delta X   Delta X   Delta X     New X
                                 (Linear)    (Quad)   (Total)
    R1        2.46195  -0.14603  -0.21016  -0.01346  -0.22362   2.23833
    R2        1.93943  -0.00255   0.00040  -0.01130  -0.01090   1.92853
    A2        1.96301   0.02163   0.01191   0.16746   0.17936   2.14238
         Item               Value     Threshold  Converged?
 Maximum Force            0.146034     0.000450     NO 
 RMS     Force            0.085245     0.000300     NO 
 Maximum Displacement     0.223625     0.001800     NO 
 RMS     Displacement     0.165629     0.001200     NO 
 Predicted change in Energy=-2.841641D-02
 Lowest energy point so far.  Saving SCF results.
 GradGradGradGradGradGradGradGradGradGradGradGradGradGradGradGradGradGrad

 Leave Link  103 at Wed Jul 17 10:14:27 2019, MaxMem=  1342177280 cpu:         0.1
 (Enter /soft/gaussian/09-e.01/g09/l202.exe)
 ---------------------------------------------------------------------------------------------------
                            Z-MATRIX (ANGSTROMS AND DEGREES)
   CD    Cent   Atom    N1       Length/X        N2       Alpha/Y        N3        Beta/Z          J
 ---------------------------------------------------------------------------------------------------
      1      1  C 
      2      2  N        1   1.184471(     1)
      3      3  H        2   1.020533(     2)      1  122.749(     3)
 ---------------------------------------------------------------------------------------------------
                         Z-Matrix orientation:                         
 ---------------------------------------------------------------------
 Center     Atomic      Atomic             Coordinates (Angstroms)
 Number     Number       Type             X           Y           Z
 ---------------------------------------------------------------------
      1          6           0        0.000000    0.000000    0.000000
      2          7           0        0.000000    0.000000    1.184471
      3          1           0        0.858316    0.000000    1.736542
 ---------------------------------------------------------------------
                    Distance matrix (angstroms):
                    1          2          3
     1  C    0.000000
     2  N    1.184471   0.000000
     3  H    1.937081   1.020533   0.000000
 Stoichiometry    CHN
 Framework group  CS[SG(CHN)]
 Deg. of freedom     3
 Full point group                 CS      NOp   2
 RotChk:  IX=0 Diff= 1.99D-15
 Largest Abelian subgroup         CS      NOp   2
 Largest concise Abelian subgroup C1      NOp   1
                         Standard orientation:                         
 ---------------------------------------------------------------------
 Center     Atomic      Atomic             Coordinates (Angstroms)
 Number     Number       Type             X           Y           Z
 ---------------------------------------------------------------------
      1          6           0        0.061308    0.716274    0.000000
      2          7           0        0.061308   -0.468197    0.000000
      3          1           0       -0.797008   -1.020268    0.000000
 ---------------------------------------------------------------------
 Rotational constants (GHZ):    805.1823273     48.9492497     46.1440273
 Leave Link  202 at Wed Jul 17 10:14:27 2019, MaxMem=  1342177280 cpu:         0.1
 (Enter /soft/gaussian/09-e.01/g09/l301.exe)
 Standard basis: 6-31G(d) (6D, 7F)
 Ernie: Thresh=  0.10000D-02 Tol=  0.10000D-05 Strict=F.
 There are    24 symmetry adapted cartesian basis functions of A'  symmetry.
 There are     8 symmetry adapted cartesian basis functions of A"  symmetry.
 There are    24 symmetry adapted basis functions of A'  symmetry.
 There are     8 symmetry adapted basis functions of A"  symmetry.
    32 basis functions,    60 primitive gaussians,    32 cartesian basis functions
     7 alpha electrons        7 beta electrons
       nuclear repulsion energy        24.0328269437 Hartrees.
 IExCor= 4639 DFT=T Ex+Corr=wB97XD ExCW=0 ScaHFX=  1.000000
 ScaDFX=  1.000000  1.000000  1.000000  1.000000 ScalE2=  1.000000  1.000000
 IRadAn=      5 IRanWt=     -1 IRanGd=            0 ICorTp=0 IEmpDi=121
  HFx wShort=  0.000000 wLong=  0.200000 cFull=  0.222036 cShort=  0.000000 cLong=  0.777964
  DFx wShort=  0.000000 wLong=  0.200000 cFull=  0.000000 cShort=  0.000000 cLong=  1.000000
 NAtoms=    3 NActive=    3 NUniq=    3 SFac= 1.00D+00 NAtFMM=   60 NAOKFM=F Big=F
 Integral buffers will be    131072 words long.
 Raffenetti 2 integral format.
 Two-electron integral symmetry is turned on.
 R6Disp:  Grimme-D2 Dispersion energy=       -0.0000363563 Hartrees.
 Nuclear repulsion after empirical dispersion term =       24.0327905874 Hartrees.
 Leave Link  301 at Wed Jul 17 10:14:27 2019, MaxMem=  1342177280 cpu:         0.5
 (Enter /soft/gaussian/09-e.01/g09/l302.exe)
 NPDir=0 NMtPBC=     1 NCelOv=     1 NCel=       1 NClECP=     1 NCelD=      1
         NCelK=      1 NCelE2=     1 NClLst=     1 CellRange=     0.0.
 One-electron integrals computed using PRISM.
 NBasis=    32 RedAO= T EigKep=  9.49D-03  NBF=    24     8
 NBsUse=    32 1.00D-06 EigRej= -1.00D+00 NBFU=    24     8
 Precomputing XC quadrature grid using
 IXCGrd= 4 IRadAn=           5 IRanWt=          -1 IRanGd=           0 AccXCQ= 0.00D+00.
 Generated NRdTot=       0 NPtTot=           0 NUsed=           0 NTot=          32
 NSgBfM=    32    32    32    32    32 MxSgAt=     3 MxSgA2=     3.
 Leave Link  302 at Wed Jul 17 10:14:27 2019, MaxMem=  1342177280 cpu:         1.6
 (Enter /soft/gaussian/09-e.01/g09/l303.exe)
 DipDrv:  MaxL=1.
 Leave Link  303 at Wed Jul 17 10:14:27 2019, MaxMem=  1342177280 cpu:         0.2
 (Enter /soft/gaussian/09-e.01/g09/l401.exe)
 Initial guess from the checkpoint file:  "/scratch/sjklipp/Gau-122789.chk"
 B after Tr=     0.000000    0.000000   -0.000000
         Rot=    0.999915    0.000000   -0.000000   -0.013001 Ang=  -1.49 deg.
 Guess basis will be translated and rotated to current coordinates.
 JPrj=2 DoOrth=T DoCkMO=T.
 Initial guess orbital symmetries:
       Occupied  (A') (A') (A') (A') (A') (A") (A')
       Virtual   (A') (A') (A') (A') (A') (A') (A') (A') (A') (A')
                 (A') (A') (A') (A') (A') (A') (A') (A') (A") (A")
                 (A") (A") (A") (A") (A")
 The electronic state of the initial guess is 1-A'.
 Generating alternative initial guess.
 ExpMin= 1.61D-01 ExpMax= 4.17D+03 ExpMxC= 6.27D+02 IAcc=2 IRadAn=         4 AccDes= 0.00D+00
 Harris functional with IExCor= 4639 and IRadAn=       4 diagonalized for initial guess.
 HarFok:  IExCor= 4639 AccDes= 0.00D+00 IRadAn=         4 IDoV= 1 UseB2=F ITyADJ=14
 ICtDFT=  3500011 ScaDFX=  1.000000  1.000000  1.000000  1.000000
 FoFCou: FMM=F IPFlag=           0 FMFlag=      100000 FMFlg1=           0
         NFxFlg=           0 DoJE=T BraDBF=F KetDBF=T FulRan=T
         wScrn=  0.000000 ICntrl=     500 IOpCl=  0 I1Cent=   200000004 NGrid=           0
         NMat0=    1 NMatS0=      1 NMatT0=    0 NMatD0=    1 NMtDS0=    0 NMtDT0=    0
 Petite list used in FoFCou.
 Harris En= -89.5176609694751    
 Leave Link  401 at Wed Jul 17 10:14:27 2019, MaxMem=  1342177280 cpu:         2.1
 (Enter /soft/gaussian/09-e.01/g09/l502.exe)
 Closed shell SCF:
 Using DIIS extrapolation, IDIIS=  1040.
 Integral symmetry usage will be decided dynamically.
 Keep R1 ints in memory in symmetry-blocked form, NReq=1152844.
 IVT=        9588 IEndB=        9588 NGot=  1342177280 MDV=  1342091077
 LenX=  1342091077 LenY=  1342089612
 Requested convergence on RMS density matrix=1.00D-08 within  64 cycles.
 Requested convergence on MAX density matrix=1.00D-06.
 Requested convergence on             energy=1.00D-06.
 No special actions if energy rises.
 FoFCou: FMM=F IPFlag=           0 FMFlag=           0 FMFlg1=           0
         NFxFlg=           0 DoJE=F BraDBF=F KetDBF=F FulRan=T
         wScrn=  0.000000 ICntrl=     600 IOpCl=  0 I1Cent=           0 NGrid=           0
         NMat0=    1 NMatS0=    528 NMatT0=    0 NMatD0=    1 NMtDS0=    0 NMtDT0=    0
 Petite list used in FoFCou.
 Integral accuracy reduced to 1.0D-05 until final iterations.

 Cycle   1  Pass 0  IDiag  1:
 E= -93.3377610351917    
 DIIS: error= 1.09D-02 at cycle   1 NSaved=   1.
 NSaved= 1 IEnMin= 1 EnMin= -93.3377610351917     IErMin= 1 ErrMin= 1.09D-02
 ErrMax= 1.09D-02  0.00D+00 EMaxC= 1.00D-01 BMatC= 6.19D-03 BMatP= 6.19D-03
 IDIUse=3 WtCom= 8.91D-01 WtEn= 1.09D-01
 Coeff-Com:  0.100D+01
 Coeff-En:   0.100D+01
 Coeff:      0.100D+01
 Recover alternate guess density for next cycle.
 RMSDP=8.97D-03 MaxDP=7.50D-02              OVMax= 0.00D+00

 Cycle   2  Pass 0  IDiag  1:
 E= -93.3257060957114     Delta-E=        0.012054939480 Rises=F Damp=F
 Switch densities from cycles 1 and 2 for lowest energy.
 DIIS: error= 5.79D-02 at cycle   2 NSaved=   2.
 NSaved= 2 IEnMin= 1 EnMin= -93.3377610351917     IErMin= 1 ErrMin= 1.09D-02
 ErrMax= 5.79D-02  0.00D+00 EMaxC= 1.00D+00 BMatC= 7.72D-02 BMatP= 6.19D-03
 IDIUse=1 WtCom= 1.00D+00 WtEn= 0.00D+00
 Coeff-Com:  0.928D+00 0.721D-01
 Coeff:      0.928D+00 0.721D-01
 Gap=     1.347 Goal=   None    Shift=    0.000
 RMSDP=3.68D-03 MaxDP=3.10D-02 DE= 1.21D-02 OVMax= 3.78D-02

 Cycle   3  Pass 0  IDiag  1:
 E= -93.3461940866611     Delta-E=       -0.020487990950 Rises=F Damp=F
 DIIS: error= 5.23D-03 at cycle   3 NSaved=   3.
 NSaved= 3 IEnMin= 3 EnMin= -93.3461940866611     IErMin= 3 ErrMin= 5.23D-03
 ErrMax= 5.23D-03  0.00D+00 EMaxC= 1.00D+00 BMatC= 1.31D-03 BMatP= 6.19D-03
 IDIUse=1 WtCom= 1.00D+00 WtEn= 0.00D+00
 Coeff-Com:  0.190D+00 0.405D-01 0.769D+00
 Coeff:      0.190D+00 0.405D-01 0.769D+00
 Gap=     0.442 Goal=   None    Shift=    0.000
 RMSDP=1.26D-03 MaxDP=1.18D-02 DE=-2.05D-02 OVMax= 1.77D-02

 Cycle   4  Pass 0  IDiag  1:
 E= -93.3470619962345     Delta-E=       -0.000867909573 Rises=F Damp=F
 DIIS: error= 5.13D-03 at cycle   4 NSaved=   4.
 NSaved= 4 IEnMin= 4 EnMin= -93.3470619962345     IErMin= 4 ErrMin= 5.13D-03
 ErrMax= 5.13D-03  0.00D+00 EMaxC= 1.00D+00 BMatC= 5.05D-04 BMatP= 1.31D-03
 IDIUse=1 WtCom= 1.00D+00 WtEn= 0.00D+00
 Coeff-Com: -0.348D-01 0.369D-02 0.368D+00 0.663D+00
 Coeff:     -0.348D-01 0.369D-02 0.368D+00 0.663D+00
 Gap=     0.440 Goal=   None    Shift=    0.000
 RMSDP=6.34D-04 MaxDP=6.96D-03 DE=-8.68D-04 OVMax= 1.10D-02

 Cycle   5  Pass 0  IDiag  1:
 E= -93.3474718893998     Delta-E=       -0.000409893165 Rises=F Damp=F
 DIIS: error= 1.22D-03 at cycle   5 NSaved=   5.
 NSaved= 5 IEnMin= 5 EnMin= -93.3474718893998     IErMin= 5 ErrMin= 1.22D-03
 ErrMax= 1.22D-03  0.00D+00 EMaxC= 1.00D+00 BMatC= 4.67D-05 BMatP= 5.05D-04
 IDIUse=1 WtCom= 1.00D+00 WtEn= 0.00D+00
 Coeff-Com: -0.353D-01-0.137D-02 0.564D-01 0.286D+00 0.694D+00
 Coeff:     -0.353D-01-0.137D-02 0.564D-01 0.286D+00 0.694D+00
 Gap=     0.441 Goal=   None    Shift=    0.000
 RMSDP=2.28D-04 MaxDP=2.66D-03 DE=-4.10D-04 OVMax= 4.20D-03

 Cycle   6  Pass 0  IDiag  1:
 E= -93.3475295617821     Delta-E=       -0.000057672382 Rises=F Damp=F
 DIIS: error= 3.57D-04 at cycle   6 NSaved=   6.
 NSaved= 6 IEnMin= 6 EnMin= -93.3475295617821     IErMin= 6 ErrMin= 3.57D-04
 ErrMax= 3.57D-04  0.00D+00 EMaxC= 1.00D+00 BMatC= 1.24D-06 BMatP= 4.67D-05
 IDIUse=1 WtCom= 1.00D+00 WtEn= 0.00D+00
 Coeff-Com:  0.114D-01 0.307D-04-0.427D-01-0.133D+00-0.142D+00 0.131D+01
 Coeff:      0.114D-01 0.307D-04-0.427D-01-0.133D+00-0.142D+00 0.131D+01
 Gap=     0.441 Goal=   None    Shift=    0.000
 RMSDP=9.89D-05 MaxDP=6.40D-04 DE=-5.77D-05 OVMax= 1.42D-03

 Cycle   7  Pass 0  IDiag  1:
 E= -93.3475344700921     Delta-E=       -0.000004908310 Rises=F Damp=F
 DIIS: error= 3.70D-05 at cycle   7 NSaved=   7.
 NSaved= 7 IEnMin= 7 EnMin= -93.3475344700921     IErMin= 7 ErrMin= 3.70D-05
 ErrMax= 3.70D-05  0.00D+00 EMaxC= 1.00D+00 BMatC= 3.63D-08 BMatP= 1.24D-06
 IDIUse=1 WtCom= 1.00D+00 WtEn= 0.00D+00
 Coeff-Com:  0.461D-03 0.137D-03 0.206D-02 0.238D-02-0.216D-01-0.168D+00
 Coeff-Com:  0.118D+01
 Coeff:      0.461D-03 0.137D-03 0.206D-02 0.238D-02-0.216D-01-0.168D+00
 Coeff:      0.118D+01
 Gap=     0.441 Goal=   None    Shift=    0.000
 RMSDP=1.89D-05 MaxDP=1.18D-04 DE=-4.91D-06 OVMax= 3.05D-04

 Cycle   8  Pass 0  IDiag  1:
 E= -93.3475346564984     Delta-E=       -0.000000186406 Rises=F Damp=F
 DIIS: error= 6.77D-06 at cycle   8 NSaved=   8.
 NSaved= 8 IEnMin= 8 EnMin= -93.3475346564984     IErMin= 8 ErrMin= 6.77D-06
 ErrMax= 6.77D-06  0.00D+00 EMaxC= 1.00D+00 BMatC= 1.53D-09 BMatP= 3.63D-08
 IDIUse=1 WtCom= 1.00D+00 WtEn= 0.00D+00
 Coeff-Com: -0.347D-03-0.132D-04 0.166D-02 0.467D-02 0.243D-02-0.486D-01
 Coeff-Com:  0.236D-01 0.102D+01
 Coeff:     -0.347D-03-0.132D-04 0.166D-02 0.467D-02 0.243D-02-0.486D-01
 Coeff:      0.236D-01 0.102D+01
 Gap=     0.441 Goal=   None    Shift=    0.000
 RMSDP=3.30D-06 MaxDP=2.08D-05 DE=-1.86D-07 OVMax= 4.24D-05

 Initial convergence to 1.0D-05 achieved.  Increase integral accuracy.
 Cycle   9  Pass 1  IDiag  1:
 E= -93.3475353859404     Delta-E=       -0.000000729442 Rises=F Damp=F
 DIIS: error= 3.45D-05 at cycle   1 NSaved=   1.
 NSaved= 1 IEnMin= 1 EnMin= -93.3475353859404     IErMin= 1 ErrMin= 3.45D-05
 ErrMax= 3.45D-05  0.00D+00 EMaxC= 1.00D+00 BMatC= 2.61D-08 BMatP= 2.61D-08
 IDIUse=1 WtCom= 1.00D+00 WtEn= 0.00D+00
 Coeff-Com:  0.100D+01
 Coeff:      0.100D+01
 Gap=     0.441 Goal=   None    Shift=    0.000
 RMSDP=3.30D-06 MaxDP=2.08D-05 DE=-7.29D-07 OVMax= 5.78D-05

 Cycle  10  Pass 1  IDiag  1:
 E= -93.3475354154684     Delta-E=       -0.000000029528 Rises=F Damp=F
 DIIS: error= 5.69D-06 at cycle   2 NSaved=   2.
 NSaved= 2 IEnMin= 2 EnMin= -93.3475354154684     IErMin= 2 ErrMin= 5.69D-06
 ErrMax= 5.69D-06  0.00D+00 EMaxC= 1.00D+00 BMatC= 9.73D-10 BMatP= 2.61D-08
 IDIUse=1 WtCom= 1.00D+00 WtEn= 0.00D+00
 Coeff-Com: -0.996D-01 0.110D+01
 Coeff:     -0.996D-01 0.110D+01
 Gap=     0.441 Goal=   None    Shift=    0.000
 RMSDP=1.90D-06 MaxDP=1.45D-05 DE=-2.95D-08 OVMax= 3.14D-05

 Cycle  11  Pass 1  IDiag  1:
 E= -93.3475354173108     Delta-E=       -0.000000001842 Rises=F Damp=F
 DIIS: error= 3.68D-06 at cycle   3 NSaved=   3.
 NSaved= 3 IEnMin= 3 EnMin= -93.3475354173108     IErMin= 3 ErrMin= 3.68D-06
 ErrMax= 3.68D-06  0.00D+00 EMaxC= 1.00D+00 BMatC= 3.79D-10 BMatP= 9.73D-10
 IDIUse=1 WtCom= 1.00D+00 WtEn= 0.00D+00
 Coeff-Com: -0.647D-01 0.431D+00 0.633D+00
 Coeff:     -0.647D-01 0.431D+00 0.633D+00
 Gap=     0.441 Goal=   None    Shift=    0.000
 RMSDP=5.95D-07 MaxDP=5.80D-06 DE=-1.84D-09 OVMax= 8.32D-06

 Cycle  12  Pass 1  IDiag  1:
 E= -93.3475354176642     Delta-E=       -0.000000000353 Rises=F Damp=F
 DIIS: error= 2.05D-06 at cycle   4 NSaved=   4.
 NSaved= 4 IEnMin= 4 EnMin= -93.3475354176642     IErMin= 4 ErrMin= 2.05D-06
 ErrMax= 2.05D-06  0.00D+00 EMaxC= 1.00D+00 BMatC= 1.09D-10 BMatP= 3.79D-10
 IDIUse=1 WtCom= 1.00D+00 WtEn= 0.00D+00
 Coeff-Com: -0.169D-01-0.187D-02 0.333D+00 0.686D+00
 Coeff:     -0.169D-01-0.187D-02 0.333D+00 0.686D+00
 Gap=     0.441 Goal=   None    Shift=    0.000
 RMSDP=3.37D-07 MaxDP=2.44D-06 DE=-3.53D-10 OVMax= 4.59D-06

 Cycle  13  Pass 1  IDiag  1:
 E= -93.3475354177875     Delta-E=       -0.000000000123 Rises=F Damp=F
 DIIS: error= 4.23D-07 at cycle   5 NSaved=   5.
 NSaved= 5 IEnMin= 5 EnMin= -93.3475354177875     IErMin= 5 ErrMin= 4.23D-07
 ErrMax= 4.23D-07  0.00D+00 EMaxC= 1.00D+00 BMatC= 3.47D-12 BMatP= 1.09D-10
 IDIUse=1 WtCom= 1.00D+00 WtEn= 0.00D+00
 Coeff-Com:  0.801D-02-0.668D-01-0.682D-01 0.419D-01 0.109D+01
 Coeff:      0.801D-02-0.668D-01-0.682D-01 0.419D-01 0.109D+01
 Gap=     0.441 Goal=   None    Shift=    0.000
 RMSDP=1.86D-07 MaxDP=1.37D-06 DE=-1.23D-10 OVMax= 3.77D-06

 Cycle  14  Pass 1  IDiag  1:
 E= -93.3475354178015     Delta-E=       -0.000000000014 Rises=F Damp=F
 DIIS: error= 7.42D-08 at cycle   6 NSaved=   6.
 NSaved= 6 IEnMin= 6 EnMin= -93.3475354178015     IErMin= 6 ErrMin= 7.42D-08
 ErrMax= 7.42D-08  0.00D+00 EMaxC= 1.00D+00 BMatC= 1.73D-13 BMatP= 3.47D-12
 IDIUse=1 WtCom= 1.00D+00 WtEn= 0.00D+00
 Coeff-Com:  0.757D-03-0.301D-03-0.216D-01-0.367D-01 0.538D-01 0.100D+01
 Coeff:      0.757D-03-0.301D-03-0.216D-01-0.367D-01 0.538D-01 0.100D+01
 Gap=     0.441 Goal=   None    Shift=    0.000
 RMSDP=3.40D-08 MaxDP=2.27D-07 DE=-1.40D-11 OVMax= 6.47D-07

 Cycle  15  Pass 1  IDiag  1:
 E= -93.3475354178021     Delta-E=       -0.000000000001 Rises=F Damp=F
 DIIS: error= 2.23D-08 at cycle   7 NSaved=   7.
 NSaved= 7 IEnMin= 7 EnMin= -93.3475354178021     IErMin= 7 ErrMin= 2.23D-08
 ErrMax= 2.23D-08  0.00D+00 EMaxC= 1.00D+00 BMatC= 1.95D-14 BMatP= 1.73D-13
 IDIUse=1 WtCom= 1.00D+00 WtEn= 0.00D+00
 Coeff-Com: -0.529D-03 0.537D-02 0.315D-03-0.691D-02-0.791D-01 0.135D+00
 Coeff-Com:  0.946D+00
 Coeff:     -0.529D-03 0.537D-02 0.315D-03-0.691D-02-0.791D-01 0.135D+00
 Coeff:      0.946D+00
 Gap=     0.441 Goal=   None    Shift=    0.000
 RMSDP=9.24D-09 MaxDP=6.22D-08 DE=-6.68D-13 OVMax= 1.55D-07

 SCF Done:  E(RwB97XD) =  -93.3475354178     A.U. after   15 cycles
            NFock= 15  Conv=0.92D-08     -V/T= 2.0084
 KE= 9.257191503649D+01 PE=-2.654954561882D+02 EE= 5.554321514646D+01
 Leave Link  502 at Wed Jul 17 10:14:28 2019, MaxMem=  1342177280 cpu:         4.3
 (Enter /soft/gaussian/09-e.01/g09/l508.exe)
 QCSCF skips out because SCF is already converged.
 Leave Link  508 at Wed Jul 17 10:14:28 2019, MaxMem=  1342177280 cpu:         0.0
 (Enter /soft/gaussian/09-e.01/g09/l701.exe)
 Compute integral first derivatives.
 ... and contract with generalized density number  0.
 R6Disp: Adding Grimme-D2 dispersion energy 1st derivatives to the gradient.
 Leave Link  701 at Wed Jul 17 10:14:28 2019, MaxMem=  1342177280 cpu:         1.4
 (Enter /soft/gaussian/09-e.01/g09/l702.exe)
 L702 exits ... SP integral derivatives will be done elsewhere.
 Leave Link  702 at Wed Jul 17 10:14:28 2019, MaxMem=  1342177280 cpu:         0.2
 (Enter /soft/gaussian/09-e.01/g09/l703.exe)
 Compute integral first derivatives, UseDBF=F ICtDFT=           0.
 Integral derivatives from FoFJK, PRISM(SPDF).
 Calling FoFJK, ICntrl=      2127 FMM=F ISym2X=1 I1Cent= 0 IOpClX= 0 NMat=1 NMatS=1 NMatT=0.
 FoFJK:  IHMeth= 1 ICntrl=    2127 DoSepK=T KAlg= 0 I1Cent=   0 FoldK=F
 IRaf=         1 NMat=   1 IRICut=       1 DoRegI=T DoRafI=F ISym2E= 1.
 FoFCou: FMM=F IPFlag=           0 FMFlag=      100000 FMFlg1=         800
         NFxFlg=           0 DoJE=F BraDBF=F KetDBF=F FulRan=T
         wScrn=  0.000000 ICntrl=    2527 IOpCl=  0 I1Cent=           0 NGrid=           0
         NMat0=    1 NMatS0=      1 NMatT0=    0 NMatD0=    1 NMtDS0=    0 NMtDT0=    0
 Petite list used in FoFCou.
 Leave Link  703 at Wed Jul 17 10:14:28 2019, MaxMem=  1342177280 cpu:         3.1
 (Enter /soft/gaussian/09-e.01/g09/l716.exe)
 Dipole        =-6.40628993D-01-6.80544514D-01-5.72489647D-50
 ***** Axes restored to original set *****
 -------------------------------------------------------------------
 Center     Atomic                   Forces (Hartrees/Bohr)
 Number     Number              X              Y              Z
 -------------------------------------------------------------------
      1        6          -0.012544758   -0.000000000   -0.018632634
      2        7           0.025401231    0.000000000    0.009584458
      3        1          -0.012856473    0.000000000    0.009048177
 -------------------------------------------------------------------
 Cartesian Forces:  Max     0.025401231 RMS     0.012861609
 -----------------------------------------------------------------------------------------------
                       Internal Coordinate Forces (Hartree/Bohr or radian)
  Cent   Atom   N1       Length/X         N2         Alpha/Y        N3         Beta/Z          J
 -----------------------------------------------------------------------------------------------
      1  C 
      2  N        1   0.018633(     1)
      3  H        2  -0.005918(     2)      1   0.028089(     3)
 -----------------------------------------------------------------------------------------------
 Internal  Forces:  Max     0.028088652 RMS     0.019758307
 Leave Link  716 at Wed Jul 17 10:14:28 2019, MaxMem=  1342177280 cpu:         0.3
 (Enter /soft/gaussian/09-e.01/g09/l103.exe)

 GradGradGradGradGradGradGradGradGradGradGradGradGradGradGradGradGradGrad
 Berny optimization.
 Search for a local minimum.
 Step number   3 out of a maximum of   20
 All quantities printed in internal units (Hartrees-Bohrs-Radians)
 Update second derivatives using D2CorN and points    1    2    3
 DE= -2.13D-02 DEPred=-2.84D-02 R= 7.48D-01
 TightC=F SS=  1.41D+00  RLast= 2.87D-01 DXNew= 8.4853D-01 8.6063D-01
 Trust test= 7.48D-01 RLast= 2.87D-01 DXMaxT set to 8.49D-01
 The second derivative matrix:
                          R1        R2        A2
           R1           0.63999
           R2          -0.01256   0.43298
           A2          -0.01343   0.01084   0.08075
 ITU=  1  1  0
     Eigenvalues ---    0.08011   0.43251   0.64110
 RFO step:  Lambda=-9.65899780D-03 EMin= 8.01120587D-02
 Quartic linear search produced a step of  0.01795.
 Variable       Old X    -DE/DX   Delta X   Delta X   Delta X     New X
                                 (Linear)    (Quad)   (Total)
    R1        2.23833   0.01863  -0.00401   0.04056   0.03654   2.27487
    R2        1.92853  -0.00592  -0.00020  -0.01994  -0.02013   1.90840
    A2        2.14238   0.02809   0.00322   0.31324   0.31646   2.45883
         Item               Value     Threshold  Converged?
 Maximum Force            0.028089     0.000450     NO 
 RMS     Force            0.019758     0.000300     NO 
 Maximum Displacement     0.316456     0.001800     NO 
 RMS     Displacement     0.184287     0.001200     NO 
 Predicted change in Energy=-5.345584D-03
 Lowest energy point so far.  Saving SCF results.
 GradGradGradGradGradGradGradGradGradGradGradGradGradGradGradGradGradGrad

 Leave Link  103 at Wed Jul 17 10:14:28 2019, MaxMem=  1342177280 cpu:         0.2
 (Enter /soft/gaussian/09-e.01/g09/l202.exe)
 ---------------------------------------------------------------------------------------------------
                            Z-MATRIX (ANGSTROMS AND DEGREES)
   CD    Cent   Atom    N1       Length/X        N2       Alpha/Y        N3        Beta/Z          J
 ---------------------------------------------------------------------------------------------------
      1      1  C 
      2      2  N        1   1.203810(     1)
      3      3  H        2   1.009880(     2)      1  140.881(     3)
 ---------------------------------------------------------------------------------------------------
                         Z-Matrix orientation:                         
 ---------------------------------------------------------------------
 Center     Atomic      Atomic             Coordinates (Angstroms)
 Number     Number       Type             X           Y           Z
 ---------------------------------------------------------------------
      1          6           0        0.000000    0.000000    0.000000
      2          7           0        0.000000    0.000000    1.203810
      3          1           0        0.637169    0.000000    1.987310
 ---------------------------------------------------------------------
                    Distance matrix (angstroms):
                    1          2          3
     1  C    0.000000
     2  N    1.203810   0.000000
     3  H    2.086956   1.009880   0.000000
 Stoichiometry    CHN
 Framework group  CS[SG(CHN)]
 Deg. of freedom     3
 Full point group                 CS      NOp   2
 RotChk:  IX=1 Diff= 1.04D-14
 Largest Abelian subgroup         CS      NOp   2
 Largest concise Abelian subgroup C1      NOp   1
                         Standard orientation:                         
 ---------------------------------------------------------------------
 Center     Atomic      Atomic             Coordinates (Angstroms)
 Number     Number       Type             X           Y           Z
 ---------------------------------------------------------------------
      1          6           0        0.045512    0.743856    0.000000
      2          7           0        0.045512   -0.459954   -0.000000
      3          1           0       -0.591657   -1.243455   -0.000000
 ---------------------------------------------------------------------
 Rotational constants (GHZ):   1530.0847802     45.2525332     43.9526263
 Leave Link  202 at Wed Jul 17 10:14:28 2019, MaxMem=  1342177280 cpu:         0.2
 (Enter /soft/gaussian/09-e.01/g09/l301.exe)
 Standard basis: 6-31G(d) (6D, 7F)
 Ernie: Thresh=  0.10000D-02 Tol=  0.10000D-05 Strict=F.
 There are    24 symmetry adapted cartesian basis functions of A'  symmetry.
 There are     8 symmetry adapted cartesian basis functions of A"  symmetry.
 There are    24 symmetry adapted basis functions of A'  symmetry.
 There are     8 symmetry adapted basis functions of A"  symmetry.
    32 basis functions,    60 primitive gaussians,    32 cartesian basis functions
     7 alpha electrons        7 beta electrons
       nuclear repulsion energy        23.6519721280 Hartrees.
 IExCor= 4639 DFT=T Ex+Corr=wB97XD ExCW=0 ScaHFX=  1.000000
 ScaDFX=  1.000000  1.000000  1.000000  1.000000 ScalE2=  1.000000  1.000000
 IRadAn=      5 IRanWt=     -1 IRanGd=            0 ICorTp=0 IEmpDi=121
  HFx wShort=  0.000000 wLong=  0.200000 cFull=  0.222036 cShort=  0.000000 cLong=  0.777964
  DFx wShort=  0.000000 wLong=  0.200000 cFull=  0.000000 cShort=  0.000000 cLong=  1.000000
 NAtoms=    3 NActive=    3 NUniq=    3 SFac= 1.00D+00 NAtFMM=   60 NAOKFM=F Big=F
 Integral buffers will be    131072 words long.
 Raffenetti 2 integral format.
 Two-electron integral symmetry is turned on.
 R6Disp:  Grimme-D2 Dispersion energy=       -0.0000551765 Hartrees.
 Nuclear repulsion after empirical dispersion term =       23.6519169515 Hartrees.
 Leave Link  301 at Wed Jul 17 10:14:28 2019, MaxMem=  1342177280 cpu:         0.5
 (Enter /soft/gaussian/09-e.01/g09/l302.exe)
 NPDir=0 NMtPBC=     1 NCelOv=     1 NCel=       1 NClECP=     1 NCelD=      1
         NCelK=      1 NCelE2=     1 NClLst=     1 CellRange=     0.0.
 One-electron integrals computed using PRISM.
 NBasis=    32 RedAO= T EigKep=  1.00D-02  NBF=    24     8
 NBsUse=    32 1.00D-06 EigRej= -1.00D+00 NBFU=    24     8
 Precomputing XC quadrature grid using
 IXCGrd= 4 IRadAn=           5 IRanWt=          -1 IRanGd=           0 AccXCQ= 0.00D+00.
 Generated NRdTot=       0 NPtTot=           0 NUsed=           0 NTot=          32
 NSgBfM=    32    32    32    32    32 MxSgAt=     3 MxSgA2=     3.
 Leave Link  302 at Wed Jul 17 10:14:29 2019, MaxMem=  1342177280 cpu:         1.7
 (Enter /soft/gaussian/09-e.01/g09/l303.exe)
 DipDrv:  MaxL=1.
 Leave Link  303 at Wed Jul 17 10:14:29 2019, MaxMem=  1342177280 cpu:         0.2
 (Enter /soft/gaussian/09-e.01/g09/l401.exe)
 Initial guess from the checkpoint file:  "/scratch/sjklipp/Gau-122789.chk"
 B after Tr=     0.000000   -0.000000    0.000000
         Rot=    0.999483    0.000000    0.000000   -0.032137 Ang=  -3.68 deg.
 Guess basis will be translated and rotated to current coordinates.
[...]
 Maximum Force            0.007110     0.000450     NO 
 RMS     Force            0.004429     0.000300     NO 
 Maximum Displacement     0.656122     0.001800     NO 
 RMS     Displacement     0.378921     0.001200     NO 
 Predicted change in Energy=-1.301221D-03
 Lowest energy point so far.  Saving SCF results.
 GradGradGradGradGradGradGradGradGradGradGradGradGradGradGradGradGradGrad

 Leave Link  103 at Wed Jul 17 10:14:35 2019, MaxMem=  1342177280 cpu:         0.1
 (Enter /soft/gaussian/09-e.01/g09/l202.exe)
 ---------------------------------------------------------------------------------------------------
                            Z-MATRIX (ANGSTROMS AND DEGREES)
   CD    Cent   Atom    N1       Length/X        N2       Alpha/Y        N3        Beta/Z          J
 ---------------------------------------------------------------------------------------------------
      1      1  C 
      2      2  N        1   1.177496(     1)
      3      3  H        2   1.008090(     2)      1  210.801(     3)
 ---------------------------------------------------------------------------------------------------
                         Z-Matrix orientation:                         
 ---------------------------------------------------------------------
 Center     Atomic      Atomic             Coordinates (Angstroms)
 Number     Number       Type             X           Y           Z
 ---------------------------------------------------------------------
      1          6           0        0.000000    0.000000    0.000000
      2          7           0        0.000000    0.000000    1.177496
      3          1           0       -0.516195    0.000000    2.043399
 ---------------------------------------------------------------------
                    Distance matrix (angstroms):
                    1          2          3
     1  C    0.000000
     2  N    1.177496   0.000000
     3  H    2.107590   1.008090   0.000000
 Stoichiometry    CHN
 Framework group  CS[SG(CHN)]
 Deg. of freedom     3
 Full point group                 CS      NOp   2
 RotChk:  IX=3 Diff= 1.61D-13
 Largest Abelian subgroup         CS      NOp   2
 Largest concise Abelian subgroup C1      NOp   1
                         Standard orientation:                         
 ---------------------------------------------------------------------
 Center     Atomic      Atomic             Coordinates (Angstroms)
 Number     Number       Type             X           Y           Z
 ---------------------------------------------------------------------
      1          6           0       -0.036871    0.734705   -0.000000
      2          7           0       -0.036871   -0.442791    0.000000
      3          1           0        0.479324   -1.308694    0.000000
 ---------------------------------------------------------------------
 Rotational constants (GHZ):   2385.4898534     46.2231950     45.3445618
 Leave Link  202 at Wed Jul 17 10:14:35 2019, MaxMem=  1342177280 cpu:         0.1
 (Enter /soft/gaussian/09-e.01/g09/l301.exe)
 Standard basis: 6-31G(d) (6D, 7F)
 Ernie: Thresh=  0.10000D-02 Tol=  0.10000D-05 Strict=F.
 There are    24 symmetry adapted cartesian basis functions of A'  symmetry.
 There are     8 symmetry adapted cartesian basis functions of A"  symmetry.
 There are    24 symmetry adapted basis functions of A'  symmetry.
 There are     8 symmetry adapted basis functions of A"  symmetry.
    32 basis functions,    60 primitive gaussians,    32 cartesian basis functions
     7 alpha electrons        7 beta electrons
       nuclear repulsion energy        24.0561835275 Hartrees.
 IExCor= 4639 DFT=T Ex+Corr=wB97XD ExCW=0 ScaHFX=  1.000000
 ScaDFX=  1.000000  1.000000  1.000000  1.000000 ScalE2=  1.000000  1.000000
 IRadAn=      5 IRanWt=     -1 IRanGd=            0 ICorTp=0 IEmpDi=121
  HFx wShort=  0.000000 wLong=  0.200000 cFull=  0.222036 cShort=  0.000000 cLong=  0.777964
  DFx wShort=  0.000000 wLong=  0.200000 cFull=  0.000000 cShort=  0.000000 cLong=  1.000000
 NAtoms=    3 NActive=    3 NUniq=    3 SFac= 1.00D+00 NAtFMM=   60 NAOKFM=F Big=F
 Integral buffers will be    131072 words long.
 Raffenetti 2 integral format.
 Two-electron integral symmetry is turned on.
 R6Disp:  Grimme-D2 Dispersion energy=       -0.0000581274 Hartrees.
 Nuclear repulsion after empirical dispersion term =       24.0561254001 Hartrees.
 Leave Link  301 at Wed Jul 17 10:14:35 2019, MaxMem=  1342177280 cpu:         0.4
 (Enter /soft/gaussian/09-e.01/g09/l302.exe)
 NPDir=0 NMtPBC=     1 NCelOv=     1 NCel=       1 NClECP=     1 NCelD=      1
         NCelK=      1 NCelE2=     1 NClLst=     1 CellRange=     0.0.
 One-electron integrals computed using PRISM.
 NBasis=    32 RedAO= T EigKep=  8.88D-03  NBF=    24     8
 NBsUse=    32 1.00D-06 EigRej= -1.00D+00 NBFU=    24     8
 Precomputing XC quadrature grid using
 IXCGrd= 4 IRadAn=           5 IRanWt=          -1 IRanGd=           0 AccXCQ= 0.00D+00.
 Generated NRdTot=       0 NPtTot=           0 NUsed=           0 NTot=          32
 NSgBfM=    32    32    32    32    32 MxSgAt=     3 MxSgA2=     3.
 Leave Link  302 at Wed Jul 17 10:14:35 2019, MaxMem=  1342177280 cpu:         1.6
 (Enter /soft/gaussian/09-e.01/g09/l303.exe)
 DipDrv:  MaxL=1.
 Leave Link  303 at Wed Jul 17 10:14:35 2019, MaxMem=  1342177280 cpu:         0.2
 (Enter /soft/gaussian/09-e.01/g09/l401.exe)
 Initial guess from the checkpoint file:  "/scratch/sjklipp/Gau-122789.chk"
 B after Tr=     0.000000   -0.000000   -0.000000
         Rot=    0.000000   -0.044281    0.999019   -0.000000 Ang=-180.00 deg.
 Guess basis will be translated and rotated to current coordinates.
 JPrj=2 DoOrth=T DoCkMO=T.
 Initial guess orbital symmetries:
       Occupied  (A') (A') (A') (A') (A') (A") (A')
       Virtual   (A') (A') (A') (A') (A') (A') (A') (A') (A') (A')
                 (A') (A') (A') (A') (A') (A') (A') (A') (A") (A")
                 (A") (A") (A") (A") (A")
 The electronic state of the initial guess is 1-A'.
 Generating alternative initial guess.
 ExpMin= 1.61D-01 ExpMax= 4.17D+03 ExpMxC= 6.27D+02 IAcc=2 IRadAn=         4 AccDes= 0.00D+00
 Harris functional with IExCor= 4639 and IRadAn=       4 diagonalized for initial guess.
 HarFok:  IExCor= 4639 AccDes= 0.00D+00 IRadAn=         4 IDoV= 1 UseB2=F ITyADJ=14
 ICtDFT=  3500011 ScaDFX=  1.000000  1.000000  1.000000  1.000000
 FoFCou: FMM=F IPFlag=           0 FMFlag=      100000 FMFlg1=           0
         NFxFlg=           0 DoJE=T BraDBF=F KetDBF=T FulRan=T
         wScrn=  0.000000 ICntrl=     500 IOpCl=  0 I1Cent=   200000004 NGrid=           0
         NMat0=    1 NMatS0=      1 NMatT0=    0 NMatD0=    1 NMtDS0=    0 NMtDT0=    0
 Petite list used in FoFCou.
 Harris En= -89.5284684304971    
 Leave Link  401 at Wed Jul 17 10:14:36 2019, MaxMem=  1342177280 cpu:         1.9
 (Enter /soft/gaussian/09-e.01/g09/l502.exe)
 Closed shell SCF:
 Using DIIS extrapolation, IDIIS=  1040.
 Integral symmetry usage will be decided dynamically.
 Keep R1 ints in memory in symmetry-blocked form, NReq=1152844.
 IVT=        9588 IEndB=        9588 NGot=  1342177280 MDV=  1342091077
 LenX=  1342091077 LenY=  1342089612
 Requested convergence on RMS density matrix=1.00D-08 within  64 cycles.
 Requested convergence on MAX density matrix=1.00D-06.
 Requested convergence on             energy=1.00D-06.
 No special actions if energy rises.
 FoFCou: FMM=F IPFlag=           0 FMFlag=           0 FMFlg1=           0
         NFxFlg=           0 DoJE=F BraDBF=F KetDBF=F FulRan=T
         wScrn=  0.000000 ICntrl=     600 IOpCl=  0 I1Cent=           0 NGrid=           0
         NMat0=    1 NMatS0=    528 NMatT0=    0 NMatD0=    1 NMtDS0=    0 NMtDT0=    0
 Petite list used in FoFCou.
 Integral accuracy reduced to 1.0D-05 until final iterations.

 Cycle   1  Pass 0  IDiag  1:
 E= -93.3436279713968    
 DIIS: error= 1.18D-02 at cycle   1 NSaved=   1.
 NSaved= 1 IEnMin= 1 EnMin= -93.3436279713968     IErMin= 1 ErrMin= 1.18D-02
 ErrMax= 1.18D-02  0.00D+00 EMaxC= 1.00D-01 BMatC= 8.34D-03 BMatP= 8.34D-03
 IDIUse=3 WtCom= 8.82D-01 WtEn= 1.18D-01
 Coeff-Com:  0.100D+01
 Coeff-En:   0.100D+01
 Coeff:      0.100D+01
 Recover alternate guess density for next cycle.
 RMSDP=7.76D-03 MaxDP=5.87D-02              OVMax= 0.00D+00

 Cycle   2  Pass 0  IDiag  1:
 E= -93.3290163606065     Delta-E=        0.014611610790 Rises=F Damp=F
 Switch densities from cycles 1 and 2 for lowest energy.
 DIIS: error= 7.10D-02 at cycle   2 NSaved=   2.
 NSaved= 2 IEnMin= 1 EnMin= -93.3436279713968     IErMin= 1 ErrMin= 1.18D-02
 ErrMax= 7.10D-02  0.00D+00 EMaxC= 1.00D+00 BMatC= 8.30D-02 BMatP= 8.34D-03
 IDIUse=1 WtCom= 1.00D+00 WtEn= 0.00D+00
 Coeff-Com:  0.900D+00 0.100D+00
 Coeff:      0.900D+00 0.100D+00
 Gap=     1.197 Goal=   None    Shift=    0.000
 RMSDP=3.45D-03 MaxDP=3.33D-02 DE= 1.46D-02 OVMax= 5.21D-02

 Cycle   3  Pass 0  IDiag  1:
 E= -93.3563744620354     Delta-E=       -0.027358101429 Rises=F Damp=F
 DIIS: error= 3.95D-03 at cycle   3 NSaved=   3.
 NSaved= 3 IEnMin= 3 EnMin= -93.3563744620354     IErMin= 3 ErrMin= 3.95D-03
 ErrMax= 3.95D-03  0.00D+00 EMaxC= 1.00D+00 BMatC= 4.48D-04 BMatP= 8.34D-03
 IDIUse=1 WtCom= 1.00D+00 WtEn= 0.00D+00
 Coeff-Com: -0.104D+00 0.202D-01 0.108D+01
 Coeff:     -0.104D+00 0.202D-01 0.108D+01
 Gap=     0.473 Goal=   None    Shift=    0.000
 RMSDP=1.14D-03 MaxDP=8.04D-03 DE=-2.74D-02 OVMax= 1.48D-02

 Cycle   4  Pass 0  IDiag  1:
 E= -93.3569853670096     Delta-E=       -0.000610904974 Rises=F Damp=F
 DIIS: error= 3.13D-03 at cycle   4 NSaved=   4.
 NSaved= 4 IEnMin= 4 EnMin= -93.3569853670096     IErMin= 4 ErrMin= 3.13D-03
 ErrMax= 3.13D-03  0.00D+00 EMaxC= 1.00D+00 BMatC= 2.50D-04 BMatP= 4.48D-04
 IDIUse=1 WtCom= 1.00D+00 WtEn= 0.00D+00
 Coeff-Com: -0.718D-01-0.200D-02 0.499D+00 0.574D+00
 Coeff:     -0.718D-01-0.200D-02 0.499D+00 0.574D+00
 Gap=     0.470 Goal=   None    Shift=    0.000
 RMSDP=4.40D-04 MaxDP=4.99D-03 DE=-6.11D-04 OVMax= 7.61D-03

 Cycle   5  Pass 0  IDiag  1:
 E= -93.3572061485510     Delta-E=       -0.000220781541 Rises=F Damp=F
 DIIS: error= 1.18D-03 at cycle   5 NSaved=   5.
 NSaved= 5 IEnMin= 5 EnMin= -93.3572061485510     IErMin= 5 ErrMin= 1.18D-03
 ErrMax= 1.18D-03  0.00D+00 EMaxC= 1.00D+00 BMatC= 2.43D-05 BMatP= 2.50D-04
 IDIUse=1 WtCom= 1.00D+00 WtEn= 0.00D+00
 Coeff-Com: -0.207D-01 0.673D-03 0.290D-01 0.224D+00 0.767D+00
 Coeff:     -0.207D-01 0.673D-03 0.290D-01 0.224D+00 0.767D+00
 Gap=     0.471 Goal=   None    Shift=    0.000
 RMSDP=1.59D-04 MaxDP=1.35D-03 DE=-2.21D-04 OVMax= 2.24D-03

 Cycle   6  Pass 0  IDiag  1:
 E= -93.3572344801246     Delta-E=       -0.000028331574 Rises=F Damp=F
 DIIS: error= 1.49D-04 at cycle   6 NSaved=   6.
 NSaved= 6 IEnMin= 6 EnMin= -93.3572344801246     IErMin= 6 ErrMin= 1.49D-04
 ErrMax= 1.49D-04  0.00D+00 EMaxC= 1.00D+00 BMatC= 5.44D-07 BMatP= 2.43D-05
 IDIUse=1 WtCom= 1.00D+00 WtEn= 0.00D+00
 Coeff-Com:  0.771D-02-0.165D-03-0.473D-01-0.583D-01-0.789D-01 0.118D+01
 Coeff:      0.771D-02-0.165D-03-0.473D-01-0.583D-01-0.789D-01 0.118D+01
 Gap=     0.471 Goal=   None    Shift=    0.000
 RMSDP=7.18D-05 MaxDP=5.69D-04 DE=-2.83D-05 OVMax= 1.06D-03

 Cycle   7  Pass 0  IDiag  1:
 E= -93.3572368078115     Delta-E=       -0.000002327687 Rises=F Damp=F
 DIIS: error= 3.09D-05 at cycle   7 NSaved=   7.
 NSaved= 7 IEnMin= 7 EnMin= -93.3572368078115     IErMin= 7 ErrMin= 3.09D-05
 ErrMax= 3.09D-05  0.00D+00 EMaxC= 1.00D+00 BMatC= 3.19D-08 BMatP= 5.44D-07
 IDIUse=1 WtCom= 1.00D+00 WtEn= 0.00D+00
 Coeff-Com:  0.102D-02 0.182D-04-0.257D-03-0.122D-01-0.406D-01 0.359D-01
 Coeff-Com:  0.102D+01
 Coeff:      0.102D-02 0.182D-04-0.257D-03-0.122D-01-0.406D-01 0.359D-01
 Coeff:      0.102D+01
 Gap=     0.471 Goal=   None    Shift=    0.000
 RMSDP=1.29D-05 MaxDP=9.57D-05 DE=-2.33D-06 OVMax= 2.12D-04

 Cycle   8  Pass 0  IDiag  1:
 E= -93.3572369188005     Delta-E=       -0.000000110989 Rises=F Damp=F
 DIIS: error= 1.66D-05 at cycle   8 NSaved=   8.
 NSaved= 8 IEnMin= 8 EnMin= -93.3572369188005     IErMin= 8 ErrMin= 1.66D-05
 ErrMax= 1.66D-05  0.00D+00 EMaxC= 1.00D+00 BMatC= 3.61D-09 BMatP= 3.19D-08
 IDIUse=1 WtCom= 1.00D+00 WtEn= 0.00D+00
 Coeff-Com: -0.505D-03-0.884D-05 0.371D-02 0.265D-02-0.140D-02-0.924D-01
 Coeff-Com:  0.128D+00 0.960D+00
 Coeff:     -0.505D-03-0.884D-05 0.371D-02 0.265D-02-0.140D-02-0.924D-01
 Coeff:      0.128D+00 0.960D+00
 Gap=     0.471 Goal=   None    Shift=    0.000
 RMSDP=3.95D-06 MaxDP=3.26D-05 DE=-1.11D-07 OVMax= 7.48D-05

 Initial convergence to 1.0D-05 achieved.  Increase integral accuracy.
 Cycle   9  Pass 1  IDiag  1:
 E= -93.3572363389412     Delta-E=        0.000000579859 Rises=F Damp=F
 DIIS: error= 1.55D-05 at cycle   1 NSaved=   1.
 NSaved= 1 IEnMin= 1 EnMin= -93.3572363389412     IErMin= 1 ErrMin= 1.55D-05
 ErrMax= 1.55D-05  0.00D+00 EMaxC= 1.00D+00 BMatC= 1.22D-08 BMatP= 1.22D-08
 IDIUse=1 WtCom= 1.00D+00 WtEn= 0.00D+00
 Coeff-Com:  0.100D+01
 Coeff:      0.100D+01
 Gap=     0.471 Goal=   None    Shift=    0.000
 RMSDP=3.95D-06 MaxDP=3.26D-05 DE= 5.80D-07 OVMax= 2.80D-05

 Cycle  10  Pass 1  IDiag  1:
 E= -93.3572363494489     Delta-E=       -0.000000010508 Rises=F Damp=F
 DIIS: error= 2.80D-06 at cycle   2 NSaved=   2.
 NSaved= 2 IEnMin= 2 EnMin= -93.3572363494489     IErMin= 2 ErrMin= 2.80D-06
 ErrMax= 2.80D-06  0.00D+00 EMaxC= 1.00D+00 BMatC= 3.69D-10 BMatP= 1.22D-08
 IDIUse=1 WtCom= 1.00D+00 WtEn= 0.00D+00
 Coeff-Com: -0.660D-01 0.107D+01
 Coeff:     -0.660D-01 0.107D+01
 Gap=     0.471 Goal=   None    Shift=    0.000
 RMSDP=1.13D-06 MaxDP=9.66D-06 DE=-1.05D-08 OVMax= 1.43D-05

 Cycle  11  Pass 1  IDiag  1:
 E= -93.3572363499022     Delta-E=       -0.000000000453 Rises=F Damp=F
 DIIS: error= 3.40D-06 at cycle   3 NSaved=   3.
 NSaved= 3 IEnMin= 3 EnMin= -93.3572363499022     IErMin= 2 ErrMin= 2.80D-06
 ErrMax= 3.40D-06  0.00D+00 EMaxC= 1.00D+00 BMatC= 2.71D-10 BMatP= 3.69D-10
 IDIUse=1 WtCom= 1.00D+00 WtEn= 0.00D+00
 Coeff-Com: -0.569D-01 0.515D+00 0.542D+00
 Coeff:     -0.569D-01 0.515D+00 0.542D+00
 Gap=     0.471 Goal=   None    Shift=    0.000
 RMSDP=4.58D-07 MaxDP=5.92D-06 DE=-4.53D-10 OVMax= 7.31D-06

 Cycle  12  Pass 1  IDiag  1:
 E= -93.3572363501424     Delta-E=       -0.000000000240 Rises=F Damp=F
 DIIS: error= 1.12D-06 at cycle   4 NSaved=   4.
 NSaved= 4 IEnMin= 4 EnMin= -93.3572363501424     IErMin= 4 ErrMin= 1.12D-06
 ErrMax= 1.12D-06  0.00D+00 EMaxC= 1.00D+00 BMatC= 3.29D-11 BMatP= 2.71D-10
 IDIUse=1 WtCom= 1.00D+00 WtEn= 0.00D+00
 Coeff-Com: -0.126D-01 0.240D-02 0.238D+00 0.772D+00
 Coeff:     -0.126D-01 0.240D-02 0.238D+00 0.772D+00
 Gap=     0.471 Goal=   None    Shift=    0.000
 RMSDP=1.81D-07 MaxDP=1.50D-06 DE=-2.40D-10 OVMax= 2.27D-06

 Cycle  13  Pass 1  IDiag  1:
 E= -93.3572363501801     Delta-E=       -0.000000000038 Rises=F Damp=F
 DIIS: error= 2.48D-07 at cycle   5 NSaved=   5.
 NSaved= 5 IEnMin= 5 EnMin= -93.3572363501801     IErMin= 5 ErrMin= 2.48D-07
 ErrMax= 2.48D-07  0.00D+00 EMaxC= 1.00D+00 BMatC= 9.54D-13 BMatP= 3.29D-11
 IDIUse=1 WtCom= 1.00D+00 WtEn= 0.00D+00
 Coeff-Com:  0.554D-02-0.638D-01-0.358D-01 0.351D-01 0.106D+01
 Coeff:      0.554D-02-0.638D-01-0.358D-01 0.351D-01 0.106D+01
 Gap=     0.471 Goal=   None    Shift=    0.000
 RMSDP=8.92D-08 MaxDP=5.63D-07 DE=-3.77D-11 OVMax= 1.54D-06

 Cycle  14  Pass 1  IDiag  1:
 E= -93.3572363501834     Delta-E=       -0.000000000003 Rises=F Damp=F
 DIIS: error= 3.74D-08 at cycle   6 NSaved=   6.
 NSaved= 6 IEnMin= 6 EnMin= -93.3572363501834     IErMin= 6 ErrMin= 3.74D-08
 ErrMax= 3.74D-08  0.00D+00 EMaxC= 1.00D+00 BMatC= 5.34D-14 BMatP= 9.54D-13
 IDIUse=1 WtCom= 1.00D+00 WtEn= 0.00D+00
 Coeff-Com:  0.634D-03-0.116D-02-0.159D-01-0.361D-01 0.743D-01 0.978D+00
 Coeff:      0.634D-03-0.116D-02-0.159D-01-0.361D-01 0.743D-01 0.978D+00
 Gap=     0.471 Goal=   None    Shift=    0.000
 RMSDP=1.79D-08 MaxDP=1.66D-07 DE=-3.38D-12 OVMax= 2.78D-07

 Cycle  15  Pass 1  IDiag  1:
 E= -93.3572363501837     Delta-E=       -0.000000000000 Rises=F Damp=F
 DIIS: error= 1.23D-08 at cycle   7 NSaved=   7.
 NSaved= 7 IEnMin= 7 EnMin= -93.3572363501837     IErMin= 7 ErrMin= 1.23D-08
 ErrMax= 1.23D-08  0.00D+00 EMaxC= 1.00D+00 BMatC= 4.05D-15 BMatP= 5.34D-14
 IDIUse=1 WtCom= 1.00D+00 WtEn= 0.00D+00
 Coeff-Com: -0.331D-03 0.458D-02-0.271D-04-0.850D-02-0.725D-01 0.106D+00
 Coeff-Com:  0.970D+00
 Coeff:     -0.331D-03 0.458D-02-0.271D-04-0.850D-02-0.725D-01 0.106D+00
 Coeff:      0.970D+00
 Gap=     0.471 Goal=   None    Shift=    0.000
 RMSDP=4.58D-09 MaxDP=3.09D-08 DE=-2.56D-13 OVMax= 6.73D-08

 SCF Done:  E(RwB97XD) =  -93.3572363502     A.U. after   15 cycles
            NFock= 15  Conv=0.46D-08     -V/T= 2.0088
 KE= 9.254719611206D+01 PE=-2.655498397829D+02 EE= 5.558928192054D+01
 Leave Link  502 at Wed Jul 17 10:14:36 2019, MaxMem=  1342177280 cpu:         4.3
 (Enter /soft/gaussian/09-e.01/g09/l508.exe)
 QCSCF skips out because SCF is already converged.
 Leave Link  508 at Wed Jul 17 10:14:36 2019, MaxMem=  1342177280 cpu:         0.0
 (Enter /soft/gaussian/09-e.01/g09/l701.exe)
 Compute integral first derivatives.
 ... and contract with generalized density number  0.
 R6Disp: Adding Grimme-D2 dispersion energy 1st derivatives to the gradient.
 Leave Link  701 at Wed Jul 17 10:14:36 2019, MaxMem=  1342177280 cpu:         1.6
 (Enter /soft/gaussian/09-e.01/g09/l702.exe)
 L702 exits ... SP integral derivatives will be done elsewhere.
 Leave Link  702 at Wed Jul 17 10:14:36 2019, MaxMem=  1342177280 cpu:         0.2
 (Enter /soft/gaussian/09-e.01/g09/l703.exe)
 Compute integral first derivatives, UseDBF=F ICtDFT=           0.
 Integral derivatives from FoFJK, PRISM(SPDF).
 Calling FoFJK, ICntrl=      2127 FMM=F ISym2X=1 I1Cent= 0 IOpClX= 0 NMat=1 NMatS=1 NMatT=0.
 FoFJK:  IHMeth= 1 ICntrl=    2127 DoSepK=T KAlg= 0 I1Cent=   0 FoldK=F
 IRaf=         1 NMat=   1 IRICut=       1 DoRegI=T DoRafI=F ISym2E= 1.
 FoFCou: FMM=F IPFlag=           0 FMFlag=      100000 FMFlg1=         800
         NFxFlg=           0 DoJE=F BraDBF=F KetDBF=F FulRan=T
         wScrn=  0.000000 ICntrl=    2527 IOpCl=  0 I1Cent=           0 NGrid=           0
         NMat0=    1 NMatS0=      1 NMatT0=    0 NMatD0=    1 NMtDS0=    0 NMtDT0=    0
 Petite list used in FoFCou.
 Leave Link  703 at Wed Jul 17 10:14:36 2019, MaxMem=  1342177280 cpu:         3.0
 (Enter /soft/gaussian/09-e.01/g09/l716.exe)
 Dipole        = 4.19575339D-01-1.01097983D+00 3.79309353D-33
 ***** Axes restored to original set *****
 -------------------------------------------------------------------
 Center     Atomic                   Forces (Hartrees/Bohr)
 Number     Number              X              Y              Z
 -------------------------------------------------------------------
      1        6           0.006325339    0.000000000   -0.007665135
      2        7          -0.015242902   -0.000000000    0.008190143
      3        1           0.008917563    0.000000000   -0.000525008
 -------------------------------------------------------------------
 Cartesian Forces:  Max     0.015242902 RMS     0.007287640
 Error on Z-matrix line number      3:  angle Alpha is outside the valid range of 0 to 180.
 Conversion from Z-matrix to cartesian coordinates failed:
 ---------------------------------------------------------------------------------------------------
                            Z-MATRIX (ANGSTROMS AND DEGREES)
   CD    Cent   Atom    N1       Length/X        N2       Alpha/Y        N3        Beta/Z          J
 ---------------------------------------------------------------------------------------------------
      1      1  C 
      2      2  N        1   1.177496(     1)
      3      3  H        2   1.008090(     2)      1  210.801(     3)
 ---------------------------------------------------------------------------------------------------
 Error termination via Lnk1e in /soft/gaussian/09-e.01/g09/l716.exe at Wed Jul 17 10:14:37 2019.
 Job cpu time:       0 days  0 hours  2 minutes 19.8 seconds.
 File lengths (MBytes):  RWF=      5 Int=      0 D2E=      0 Chk=      1 Scr=      1
