[Molden Format]
[Molpro variables]
_NUMVAR=  691.0000000000000    
_EV2006= 0.3674930886769165E-01
_EV= 0.3674932534394180E-01
_KJOULE= 0.3808798324128737E-03
_KJOULE/MOL= 0.3808798324128737E-03
_CM= 0.4556335267302901E-05
_CM-1= 0.4556335267302901E-05
_KCAL= 0.1593601117815568E-02
_KCAL/MOL= 0.1593601117815568E-02
_KELVIN2006= 0.3166828861084835E-05
_KELVIN= 0.3166814820820034E-05
_HERTZ2006= 0.1519829850815779E-15
_HERTZ= 0.1519829846011223E-15
_HZ2006= 0.1519829850815779E-15
_HZ= 0.1519829846011223E-15
_TOA2006= 0.5291772490000000    
_TOA= 0.5291772090000000    
_TOANG2006= 0.5291772490000000    
_TOANG= 0.5291772090000000    
_TORAD= 0.1745329251994330E-01
_TOCM=  219474.6306700000    
_TODEBYE=  2.541580000000000    
_TOEV2006=  27.21139610000000    
_TOEV=  27.21138390000000    
_TOHERTZ2006=  6579683899900000.    
_TOHERTZ=  6579683920700000.    
_TOHZ2006=  6579683899900000.    
_TOHZ=  6579683920700000.    
_TOK2006=  315773.3000000000    
_TOK=  315774.7000000000    
_TOKCAL=  627.5096000000000    
_TOKELVIN2006=  315773.3000000000    
_TOKELVIN=  315774.7000000000    
_TOKJ=  2625.500000000000    
_TOKJOULE=  2625.500000000000    
_ANG2006=  1.889725988578923    
_ANG=  1.889726131421507    
_ANGSTROM2006=  1.889725988578923    
_ANGSTROM=  1.889726131421507    
_IGNORE_UNDEF=  2.000000000000000    
_STRICTCHECK=  0.000000000000000    
_SEW_ONEEL=  0.000000000000000    
_CPPDONE=FALSE
_DKROLL_DONE=  0.000000000000000    
_FOCKDONE=  0.000000000000000    
_GRADONE=FALSE
_HESSDONE=FALSE
_INTDONE=TRUE
_SCFDONE=FALSE
_MODUL_CUDA=FALSE
_MODUL_SLATER=FALSE
_MODUL_MRCC=FALSE
_MRCC_EXEC=
_FITC_AO_SAVED=FALSE
_FITC_MO_SAVED=FALSE
_SHARED_FS=TRUE
_LSTYP=SEWARD
_INTYP=INTS
_GEOMTYP=ZMAT
_GRADTYP=ALASKA
_DIRECT=FALSE
_SYNCM=  0.000000000000000    
_BASIS=CC-PVDZ
_ZORIENT=  1.000000000000000    
_NELEC=  16.00000000000000    
_SPIN=  0.000000000000000    
!SPIN=  0.000000000000000    
_QSDSTEP=  0.000000000000000    
_QSDIRC=  0.000000000000000    
_PROGRAM=RS2
_CPUSTEP= 0.5000000000000004E-01
_SYSSTEP= 0.1000000000000001E-01
_WALLSTEP=  1.480000000000000    
!DFMP2=  0.000000000000000    
!DFSCF=  0.000000000000000    
!SCSGRD=  0.000000000000000    
_BASINP=  610.0000000000000    
_CPUTOT=  1.750000000000000    
_DFTEXFAC=  1.000000000000000    
_DMX= 0.2542842339996768E-04
_DMY= 0.2940681682110180    
_DMZ= 0.2745321170110033    
_EMP2= -78.16119108637700    
_ENERGR= -77.90827068966544    
_ENERGU= -78.14416472087414    
_ENERGY= -78.16119108637700    
_ENUC=  30.81160202105771    
_GRADEXFAC=  9999.000000000000    
_GRADMETHOD=TRUE
!GRID_FREEZE= -1.000000000000000    
_ITERATIONS=  5.000000000000000    
_LASTNELEC=  2.000000000000000    
_LASTSPIN=  0.000000000000000    
_LASTSYM=  1.000000000000000    
_MPP_PROG=  1.000000000000000    
_NPROC_MPP=  4.000000000000000    
_NPROC_SMP=  1.000000000000000    
_NUMSTEP=  0.000000000000000    
_ORBITAL=  2142.200000000000    
_PI=  3.141592653589793    
!MCACT=  2.000000000000000    
!MCCLOSED=  7.000000000000000    
!MCFREEZE=  0.000000000000000    
!MCMS2=  0.000000000000000    
!MCNEL=  2.000000000000000    
!MCNSTSYM=  1.000000000000000    
!MCSTATE=  1.000000000000000    
!MCSYM=  1.000000000000000    
!MCWEIGHT=  1.000000000000000    
_SEIG_MIN= 0.4114373615433263E-02
_SEWPROP=TRUE
_STATUS=  1.000000000000000    
_SYSTOT= 0.2700000000000000    
_VERSION=  2010001.000000000    
_WALLTOT=  12.05000000000000    
_DATE=06-Sep-19
_LASTORB=MCSCF
_MACHINE=Linux-2.6.34-12-desktop/tt106(x86_64) 64 bit mpp version
_OUTPUT=/home/carlo/qm/combustion/barrierless/c2h4_c2h3_h/dist_2.4/molpro.xml
_PGROUP=C1
_TIME=03:49:57
_LIBMOL=/programs/molpro2010p/bin/../lib/
!SURFREC=  0.000000000000000    
!POLYREC=  0.000000000000000    
!DIPREC=  0.000000000000000    
!VSCFREC=  0.000000000000000    
!VCIREC=  0.000000000000000    
!PVCIREC=  0.000000000000000    
!VMP2REC=  0.000000000000000    
!VMCSCFREC=  0.000000000000000    
!GAREC=  0.000000000000000    
!SCFORB=  21002.00000000000    
!MCORB=  21422.00000000000    
!CIOCC=  9.000000000000000    
!CICORE=  2.000000000000000    
!CICLOS=  7.000000000000000    
!CIISTSYM=  1.000000000000000    
!CIISTMS2=  0.000000000000000    
!CIISTNEL=  12.00000000000000    
!NEWMOL=  0.000000000000000    
!NEWSYM=  0.000000000000000    
_SLFILES=slscratch
_NGSSTO=  9.000000000000000    
_SIN=SIN
_COS=COS
_TAN=TAN
_ACOS=ACOS
_ASIN=ASIN
_ATAN=ATAN
_COSH=COSH
_SINH=SINH
_TANH=TANH
_ABS=ABS
_MOD=MOD
_ERF=ERF
_REFC=REFC
_ERFC=ERFC
_HYPOT=HYPOT
_J0=J0
_J1=J1
_JN=JN
_GAMMA=GAMMA
_LGAMMA=LGAMMA
_Y0=Y0
_Y1=Y1
_YN=YN
_EXP=EXP
_LOG=LOG
_LOG10=LOG10
_SQRT=SQRT
_INT=INT
_NINT=NINT
_MAX=MAX
_MIN=MIN
_COSMO=  0.000000000000000    
_COSMOIT=  0.000000000000000    
_COSMOES=  0.000000000000000    
_COSMOEDS=  0.000000000000000    
_COSMOEC=  0.000000000000000    
_COSMOEDCORR=  0.000000000000000    
_FEPSI=  1.000000000000000    
_SL_IsMM=  0.000000000000000    
_SL_NSYM=  0.000000000000000    
_SL_System_BitSw=  0.000000000000000    
_SL_Unique_atoms=  0.000000000000000    
_SL_GRAD=  0.000000000000000    
_SL_MAXUPD_Hess=  5.000000000000000    
_SL_N_PRINT_COD=  5.000000000000000    
_SL_PRINT_CODES=  0.000000000000000    
_SL_BasType=  0.000000000000000    
_SL_Energy_Pred=  0.000000000000000    
_SL_New_Coords=  0.000000000000000    
_SL_Total_Nuclea=  0.000000000000000    
_SL_Highest_Mltp=  0.000000000000000    
_SL_Ref_Geom=  0.000000000000000    
!LATTICE= -1.000000000000000    
!NEWLATTICE=  0.000000000000000    
!LATGRAD_VAR=FALSE
!SEW_LATTICE=  1.000000000000000    
!LOCAL=  0.000000000000000    
!SAVEDOM= -1.000000000000000    
!RESTDOM= -1.000000000000000    
!SAVEDOM_HF= -1.000000000000000    
!RESTDOM_HF= -1.000000000000000    
!HESSREC=  0.000000000000000    
!FREQREC=  0.000000000000000    
!NMODREC=  0.000000000000000    
!GTASKS=  0.000000000000000    
!HTASKS=  0.000000000000000    
!THRCHG= 0.1000000000000000    
!DEBUG= -1.000000000000000    
!CFIT_CPHF=  0.000000000000000    
!RDOMAUX_CPHF=  3.000000000000000    
!THRAO_CPHF= 0.1000000000000000E-09
!THRMO_CPHF= 0.1000000000000000E-08
!THROV_CPHF= 0.1000000000000000E-11
!THRSW_CPHF= 0.1000000000000000E-09
!THRPROD_CPHF= 0.1000000000000000E-08
!THRAOPR_CPHF= 0.1000000000000000E-11
!CFIT_SCFGRD=  0.000000000000000    
!RDOMAUX_SCFGRD=  5.000000000000000    
!THRAO_SCFGRD= 0.1000000000000000E-09
!THRMO_SCFGRD= 0.1000000000000000E-08
!THROV_SCFGRD= 0.1000000000000000E-11
!THRSW_SCFGRD= 0.1000000000000000E-09
!THRPROD_SCFGRD= 0.1000000000000000E-08
!THRAOPR_SCFGRD= 0.1000000000000000E-11
!LOCFIT_SCF=  0.000000000000000    
!LOCFIT_MP2= -1.000000000000000    
_RIDOM=  0.000000000000000    
!CC2_METHOD=  0.000000000000000    
_BASIS2006=FALSE
_SVDDEL= -1.000000000000000    
_SVDDELA= -1.000000000000000    
_SVDDELP= -1.000000000000000    
_SVDDELF= -1.000000000000000    
_SVDDELS= -1.000000000000000    
_SVDDEL_ABS= -1.000000000000000    
_SVDDELA_ABS= -1.000000000000000    
_SVDDELP_ABS= -1.000000000000000    
_SVDDELF_ABS= -1.000000000000000    
_SVDDELS_ABS= -1.000000000000000    
_MAXBASIS=  0.000000000000000    
!OPT_CONICAL=  0.000000000000000    
!CLEARSP_JGRID=  0.000000000000000    
RCC1=  1.333777056060489    
RCC2=  1.099162369468706    
RCC3=  1.093247419089171    
RCH2=  1.090684472603686    
ACCC1=  120.0779830872263    
AHCC1=  122.2441739744286    
AHCC2=  118.0057462797500    
AHCC3=  135.3816049068579    
B1=  179.9947138260117    
B2=  180.0099586214509    
B3=  180.0076270771228    
RCH1=  2.400000000000000    
GX1=-0.1245367710171697E-04
GY1= 0.3357234092082827    
GZ1= -1.163916246034666    
GX2= 0.1512695818255681E-04
GY2=-0.1808407657888367    
GZ2=  1.303055053414915    
GX3=-0.2542738144302784E-03
GY3=  1.365074080853402    
GZ3=  2.690339262964248    
GX4= 0.1389450083501010E-03
GY4= -2.116984122823778    
GZ4=  2.023783572241872    
GX5=-0.1061969198474386E-03
GY5= -3.147075633246766    
GZ5= -4.068988425400197    
GX6= 0.1896698822643352E-03
GY6=  2.053344634965769    
GZ6= -2.303165855570708    
CBSEN= -78.16119108637700    
[Atoms] Angs
C     1    6        -0.0000065902        0.1776571767       -0.6159179506
C     2    6         0.0000080048       -0.0956968117        0.6895470363
H     3    1        -0.0001345559        0.7223660922        1.4236662224
H     4    1         0.0000735265       -1.1202597496        1.0709401424
H     5    1        -0.0000561970       -1.6653607001       -2.1532159384
H     6    1         0.0001003690        1.0865831830       -1.2187828793
[GTO]
  1 0
 s    9  1.00
  0.6665000000D+04  0.6920001793D-03
  0.1000000000D+04  0.5329001381D-02
  0.2280000000D+03  0.2707700701D-01
  0.6471000000D+02  0.1017180264D+00
  0.2106000000D+02  0.2747400712D+00
  0.7495000000D+01  0.4485641162D+00
  0.2797000000D+01  0.2850740738D+00
  0.5215000000D+00  0.1520400394D-01
  0.1596000000D+00 -0.3191000827D-02
 s    9  1.00
  0.6665000000D+04 -0.1460000642D-03
  0.1000000000D+04 -0.1154000508D-02
  0.2280000000D+03 -0.5725002519D-02
  0.6471000000D+02 -0.2331201026D-01
  0.2106000000D+02 -0.6395502813D-01
  0.7495000000D+01 -0.1499810660D+00
  0.2797000000D+01 -0.1272620560D+00
  0.5215000000D+00  0.5445292395D+00
  0.1596000000D+00  0.5804962554D+00
 s    9  1.00
  0.6665000000D+04  0.0000000000D+00
  0.1000000000D+04  0.0000000000D+00
  0.2280000000D+03  0.0000000000D+00
  0.6471000000D+02  0.0000000000D+00
  0.2106000000D+02  0.0000000000D+00
  0.7495000000D+01  0.0000000000D+00
  0.2797000000D+01  0.0000000000D+00
  0.5215000000D+00  0.0000000000D+00
  0.1596000000D+00  0.1000000000D+01
 p    4  1.00
  0.9439000000D+01  0.3810902127D-01
  0.2002000000D+01  0.2094801169D+00
  0.5456000000D+00  0.5085572839D+00
  0.1517000000D+00  0.4688422617D+00
 p    4  1.00
  0.9439000000D+01  0.0000000000D+00
  0.2002000000D+01  0.0000000000D+00
  0.5456000000D+00  0.0000000000D+00
  0.1517000000D+00  0.1000000000D+01
 d    1  1.00
  0.5500000000D+00  0.1000000000D+01
  
  2 0
 s    9  1.00
  0.6665000000D+04  0.6920001793D-03
  0.1000000000D+04  0.5329001381D-02
  0.2280000000D+03  0.2707700701D-01
  0.6471000000D+02  0.1017180264D+00
  0.2106000000D+02  0.2747400712D+00
  0.7495000000D+01  0.4485641162D+00
  0.2797000000D+01  0.2850740738D+00
  0.5215000000D+00  0.1520400394D-01
  0.1596000000D+00 -0.3191000827D-02
 s    9  1.00
  0.6665000000D+04 -0.1460000642D-03
  0.1000000000D+04 -0.1154000508D-02
  0.2280000000D+03 -0.5725002519D-02
  0.6471000000D+02 -0.2331201026D-01
  0.2106000000D+02 -0.6395502813D-01
  0.7495000000D+01 -0.1499810660D+00
  0.2797000000D+01 -0.1272620560D+00
  0.5215000000D+00  0.5445292395D+00
  0.1596000000D+00  0.5804962554D+00
 s    9  1.00
  0.6665000000D+04  0.0000000000D+00
  0.1000000000D+04  0.0000000000D+00
  0.2280000000D+03  0.0000000000D+00
  0.6471000000D+02  0.0000000000D+00
  0.2106000000D+02  0.0000000000D+00
  0.7495000000D+01  0.0000000000D+00
  0.2797000000D+01  0.0000000000D+00
  0.5215000000D+00  0.0000000000D+00
  0.1596000000D+00  0.1000000000D+01
 p    4  1.00
  0.9439000000D+01  0.3810902127D-01
  0.2002000000D+01  0.2094801169D+00
  0.5456000000D+00  0.5085572839D+00
  0.1517000000D+00  0.4688422617D+00
 p    4  1.00
  0.9439000000D+01  0.0000000000D+00
  0.2002000000D+01  0.0000000000D+00
  0.5456000000D+00  0.0000000000D+00
  0.1517000000D+00  0.1000000000D+01
 d    1  1.00
  0.5500000000D+00  0.1000000000D+01
  
  3 0
 s    4  1.00
  0.1301000000D+02  0.1968498999D-01
  0.1962000000D+01  0.1379769298D+00
  0.4446000000D+00  0.4781477569D+00
  0.1220000000D+00  0.5012397451D+00
 s    4  1.00
  0.1301000000D+02  0.0000000000D+00
  0.1962000000D+01  0.0000000000D+00
  0.4446000000D+00  0.0000000000D+00
  0.1220000000D+00  0.1000000000D+01
 p    1  1.00
  0.7270000000D+00  0.1000000000D+01
  
  4 0
 s    4  1.00
  0.1301000000D+02  0.1968498999D-01
  0.1962000000D+01  0.1379769298D+00
  0.4446000000D+00  0.4781477569D+00
  0.1220000000D+00  0.5012397451D+00
 s    4  1.00
  0.1301000000D+02  0.0000000000D+00
  0.1962000000D+01  0.0000000000D+00
  0.4446000000D+00  0.0000000000D+00
  0.1220000000D+00  0.1000000000D+01
 p    1  1.00
  0.7270000000D+00  0.1000000000D+01
  
  5 0
 s    4  1.00
  0.1301000000D+02  0.1968498999D-01
  0.1962000000D+01  0.1379769298D+00
  0.4446000000D+00  0.4781477569D+00
  0.1220000000D+00  0.5012397451D+00
 s    4  1.00
  0.1301000000D+02  0.0000000000D+00
  0.1962000000D+01  0.0000000000D+00
  0.4446000000D+00  0.0000000000D+00
  0.1220000000D+00  0.1000000000D+01
 p    1  1.00
  0.7270000000D+00  0.1000000000D+01
  
  6 0
 s    4  1.00
  0.1301000000D+02  0.1968498999D-01
  0.1962000000D+01  0.1379769298D+00
  0.4446000000D+00  0.4781477569D+00
  0.1220000000D+00  0.5012397451D+00
 s    4  1.00
  0.1301000000D+02  0.0000000000D+00
  0.1962000000D+01  0.0000000000D+00
  0.4446000000D+00  0.0000000000D+00
  0.1220000000D+00  0.1000000000D+01
 p    1  1.00
  0.7270000000D+00  0.1000000000D+01
 
 
[MO]
 Sym=      1.1
 Ene=     -11.2775
 Spin= Alpha
 Occup=    2.000000
1 1.00040915376410
2 0.005966621440667
3 -0.006979182001847
4 0.000000176548031
5 0.001112111316521
6 0.000244370892439
7 -0.000000224481751
8 -0.000656241448041
9 -0.000671653574305
10 -0.000640570141294
11 0.000081730521326
12 0.000558839619968
13 0.000000092431797
14 -0.000000083374229
15 -0.001141899134386
16 0.034156352313015
17 -0.001028290759120
18 0.002304617853982
19 0.000000063399035
20 -0.000108390104924
21 0.000352267519909
22 -0.000000010859405
23 0.000680228622613
24 -0.001359937437778
25 0.000260620530119
26 0.000017246332620
27 -0.000277866862738
28 0.000000018893727
29 -0.000000021179621
30 -0.000469540068004
31 0.000237627384609
32 0.000028399144976
33 0.000000052435353
34 -0.000231124940788
35 -0.000140872247815
36 -0.000009650754828
37 0.000634848027853
38 -0.000000005684480
39 0.000002604925951
40 -0.000134932124408
41 -0.000323248730917
42 0.000252983055606
43 0.000000005625999
44 0.000122569670018
45 0.000117582177326
46 -0.001338614398555
47 0.002070383432311
48 0.000000098781412
49 0.000797061237839
50 -0.000155864355591
 Sym=      2.1
 Ene=     -11.2538
 Spin= Alpha
 Occup=    2.000000
1 -0.035184635064458
2 -0.001045192312433
3 0.002833257667475
4 -0.000000029359124
5 -0.000078490709008
6 -0.000345003552912
7 -0.000000014079119
8 -0.000403848088970
9 0.001203467525012
10 0.000326989625620
11 -0.000103727288477
12 -0.000223262337143
13 0.000000024496185
14 -0.000000000378208
15 0.000126280794388
16 1.00077055396973
17 0.008064657824491
18 -0.009171541012527
19 -0.000000182260499
20 -0.000005601114510
21 0.000051753683309
22 0.000000188688956
23 -0.000021243051330
24 0.000565768188428
25 -0.000746277088350
26 0.000282673298874
27 0.000463603789476
28 -0.000000114951951
29 -0.000000064166649
30 -0.000066344514373
31 -0.000542624973148
32 0.001453157509190
33 -0.000000077280796
34 0.000431345499648
35 0.000302927684539
36 -0.000559719634353
37 0.001532015633821
38 0.000000024260687
39 -0.000512231538364
40 0.000113701865816
41 0.000005200374486
42 -0.000001233053479
43 -0.000000000195513
44 -0.000009068334737
45 -0.000030970941923
46 0.000181978693311
47 0.000163897056091
48 -0.000000035500171
49 -0.000130317038550
50 0.000080030503639
 Sym=      3.1
 Ene=      -1.0259
 Spin= Alpha
 Occup=    2.000000
1 -0.016745737732171
2 0.56876387024095
3 -0.12715322095613
4 0.000002869119398
5 0.004256834716909
6 0.23244848760080
7 -0.000002973878732
8 -0.002656765798999
9 -0.060774845158271
10 -0.010034785506281
11 -0.011524171425198
12 0.021558956931479
13 0.000000118528226
14 0.000000461283389
15 -0.008724258012522
16 -0.023059587841851
17 0.65539492249697
18 -0.18912496949520
19 -0.000004185021228
20 0.043811240878041
21 -0.17177271961464
22 0.000001907316016
23 -0.011016632793575
24 0.071824605255025
25 -0.006891008292502
26 -0.009626662680861
27 0.016517670973363
28 0.000000310628819
29 0.000000397919034
30 -0.008416350082732
31 0.21029219202439
32 -0.10468562373747
33 0.000002488912351
34 -0.013855684321000
35 -0.015288242051403
36 0.21137138019554
37 -0.095919695439362
38 -0.000001259463846
39 0.017988684690911
40 -0.009006176822591
41 -0.002319208662587
42 -0.006315239458320
43 0.000000021010275
44 0.000061171454490
45 -0.000208182839114
46 0.16873241040369
47 -0.072755944169678
48 -0.000001336084594
49 -0.010542985900202
50 0.011038085807134
 Sym=      4.1
 Ene=      -0.7682
 Spin= Alpha
 Occup=    2.000000
1 -0.010010511876260
2 0.52058865565979
3 -0.095501118568182
4 0.000017735059794
5 0.22686910047189
6 -0.14206950667639
7 -0.000007513920282
8 -0.055419706804467
9 0.034516061006390
10 -0.002980085413889
11 0.007851906479748
12 -0.004871821065858
13 0.000001280543598
14 -0.000000570958503
15 -0.005201690480795
16 0.010555937565294
17 -0.38891901603867
18 0.062146045963239
19 0.000007635113572
20 0.11562186433846
21 -0.27375308044836
22 -0.000002837692591
23 -0.023970651391620
24 0.061154774559484
25 0.001395109227721
26 -0.010773264960070
27 0.009378155732349
28 0.000001466303837
29 0.000000475433580
30 -0.009908265712648
31 -0.28203286674485
32 0.10018374263662
33 -0.000002489062272
34 0.015831396943725
35 0.008559758922819
36 -0.35016078385075
37 0.14050619514952
38 0.000001685100882
39 -0.022150676429550
40 0.003287911577479
41 -0.003477651037004
42 -0.008496429719036
43 0.000000027987897
44 0.000224911456005
45 0.000120679703087
46 0.48770030990300
47 -0.18297427697980
48 -0.000003388165711
49 -0.023578345202894
50 0.016464527813135
 Sym=      5.1
 Ene=      -0.6203
 Spin= Alpha
 Occup=    2.000000
1 -0.002547060963073
2 -0.11033996702816
3 0.058035138296605
4 0.000011342712131
5 0.31758942634081
6 -0.40088624953254
7 -0.000002666310483
8 -0.084206609357640
9 0.10905531608835
10 -0.000702649095748
11 0.010929970870391
12 -0.010227321774643
13 0.000001575818426
14 -0.000002517895643
15 0.005649514078225
16 -0.002767683064899
17 0.012731946733474
18 0.019470140773257
19 -0.000033471224901
20 0.23316353174605
21 0.54248560273289
22 0.000008596306722
23 -0.045001313068620
24 -0.12077253547244
25 -0.001434579139776
26 0.014662108971738
27 -0.013227529831962
28 -0.000002317919118
29 -0.000003188590597
30 0.010686952752720
31 0.52266495904447
32 -0.15625651257437
33 0.000003560841686
34 -0.018890051541747
35 -0.010338984847396
36 -0.015459510672613
37 0.008813615961329
38 -0.000000552432888
39 0.002598298967249
40 0.009373589680619
41 0.007386537142920
42 0.007026791593938
43 0.000000012965756
44 0.000293805900054
45 -0.000157560308471
46 0.37598513797884
47 -0.11614687415686
48 -0.000002364796142
49 -0.014109884409031
50 0.005088937415459
 Sym=      6.1
 Ene=      -0.5803
 Spin= Alpha
 Occup=    2.000000
1 0.002158556633189
2 -0.035347880727392
3 -0.028282249679427
4 -0.000033023431859
5 -0.10376109763269
6 0.32064476860216
7 0.000007921153910
8 0.020400032452560
9 -0.092215838239482
10 0.002278609805996
11 -0.016586124647241
12 0.014307514841245
13 -0.000000840475988
14 -0.000000988844641
15 0.024715814077533
16 0.000673692801189
17 0.027059999742277
18 -0.009120179652729
19 -0.000062664263248
20 0.58846355776432
21 -0.17056575182074
22 0.000013509392250
23 -0.11936152940930
24 0.030351183667822
25 -0.000441875302221
26 -0.015132353655627
27 0.015574228957848
28 -0.000000888304404
29 -0.000000023957946
30 0.017882538488011
31 0.34587465938257
32 -0.087894669308658
33 0.000001282087045
34 -0.002483665426147
35 -0.015568057652529
36 -0.59782869815994
37 0.16772184879151
38 0.000000662702473
39 -0.019500352199417
40 0.008663189078143
41 0.012485148848375
42 0.012731816524267
43 -0.000000030255070
44 -0.000007246790675
45 0.000026948387018
46 -0.30293345059727
47 0.073671686211659
48 0.000000580457742
49 0.008084991969672
50 -0.003237924268800
 Sym=      7.1
 Ene=      -0.3868
 Spin= Alpha
 Occup=    2.000000
1 0.000000398164038
2 -0.000048653929862
3 -0.000013291207980
4 0.58261810952425
5 0.000025304782472
6 0.000049173226601
7 0.006522849870042
8 -0.000006427938905
9 -0.000000426090009
10 0.000001368429021
11 -0.000002776725265
12 0.000001408296244
13 -0.002059635477014
14 0.035453916745288
15 0.000004081940047
16 0.000000529836674
17 0.000034385409883
18 -0.000002276669179
19 0.58265579349370
20 0.000069734133054
21 -0.000007295014252
22 0.022405239031560
23 0.000001790350659
24 0.000008895914152
25 -0.000001577708936
26 0.000000679219999
27 0.000000898488937
28 0.007782911101214
29 -0.032600552138409
30 -0.000000443041044
31 -0.000000859827623
32 0.000001826736044
33 0.013438352529276
34 0.000002453138043
35 0.000000797865460
36 -0.000020647266354
37 0.000001328589188
38 0.013288678935527
39 0.000000736580994
40 0.000000148844454
41 -0.000003242906078
42 0.000003406471156
43 0.001575088421763
44 -0.000000444904747
45 -0.000000449992569
46 0.000007765496922
47 -0.000005675014597
48 0.014265517728202
49 -0.000001942353852
50 0.000002319792548
 Sym=      8.1
 Ene=      -0.2830
 Spin= Alpha
 Occup=    1.590069
1 -0.001849254714311
2 0.19480416159864
3 0.071645021457771
4 0.000043023461864
5 -0.43871427349341
6 -0.31539305890403
7 0.000006490554953
8 -0.023556081808699
9 -0.015072563720872
10 -0.001467198711989
11 0.002707828170604
12 -0.001240629458615
13 -0.000002575622912
14 0.000000545747733
15 0.020086899451360
16 -0.001654939951535
17 -0.081920648566456
18 0.026546828499266
19 0.000024206090430
20 0.017875319641497
21 0.093845632552653
22 0.000003090204970
23 0.044095539945325
24 -0.020995356868475
25 0.000581083242368
26 -0.008430163579400
27 0.007849080337032
28 0.000000333225773
29 -0.000003551764511
30 0.024784674233955
31 0.11577785144810
32 0.010809447865523
33 0.000000718423276
34 -0.000217314678490
35 0.000738795440893
36 -0.085399635069657
37 0.018328125300396
38 0.000000637681043
39 0.000654361872195
40 0.002181129851914
41 0.62913331263525
42 0.037116858289876
43 0.000000341328382
44 0.001430573124879
45 0.000892636664107
46 -0.14826680357788
47 0.021649924904697
48 0.000001535467402
49 -0.005575929290325
50 -0.008806649506896
 Sym=      9.1
 Ene=      -0.0069
 Spin= Alpha
 Occup=    0.409931
1 -0.002854983733544
2 -0.29252175341079
3 -0.11158763340024
4 -0.000046832234710
5 0.55440675859129
6 0.40986364687340
7 -0.000003426406848
8 0.031373947167835
9 -0.001777973457791
10 0.005766359106355
11 -0.006432645514392
12 0.000666286408037
13 0.000004753801517
14 0.000001449250303
15 -0.028971823067910
16 0.001107807487020
17 0.080551479421640
18 -0.006459257905709
19 -0.000010293601597
20 -0.024271542268005
21 -0.11048136596548
22 0.000000650628645
23 -0.060482982059806
24 0.010400123892614
25 -0.001655392106297
26 0.010539907772336
27 -0.008884515666038
28 -0.000000484524440
29 0.000003794399801
30 -0.028568352976617
31 -0.13642972527544
32 -0.000005175789761
33 -0.000000430296193
34 0.000359686184591
35 0.000780940437412
36 0.090092322268684
37 -0.022997698149096
38 -0.000000309305652
39 -0.001449559450732
40 -0.003275283865947
41 0.84451458070855
42 -0.072136933829028
43 0.000000047928647
44 -0.000885777950298
45 -0.000818292092818
46 0.14955063181707
47 -0.030303699698502
48 -0.000001425063206
49 0.006974576623970
50 0.009735327541209
 Sym=     10.1
 Ene=       0.1619
 Spin= Alpha
 Occup=    0.000000
1 0.000008024172916
2 -0.000035153282650
3 -0.000164737879216
4 0.54197975072282
5 -0.000037570969637
6 0.000050161069005
7 0.48737067142396
8 -0.000060586498594
9 0.000073335179521
10 -0.000000402195612
11 -0.000000729397701
12 0.000001131593314
13 0.013293797224364
14 -0.019950774466356
15 -0.000003336731352
16 0.000003914822954
17 0.000014964940990
18 -0.000081246566285
19 -0.51428240570852
20 -0.000065360657291
21 -0.000051810339458
22 -0.50215723544032
23 -0.000068493603713
24 -0.000007680885606
25 0.000000052266648
26 -0.000000205967334
27 0.000000153700686
28 0.004727130171460
29 -0.026739123111852
30 0.000003500235846
31 0.000045742164697
32 0.000059849057336
33 -0.018351270955146
34 -0.000002213149237
35 -0.000000600437457
36 -0.000014216260519
37 -0.000060457278093
38 -0.018731195030245
39 -0.000002134481571
40 -0.000002413147337
41 0.000003781365255
42 0.000009629646948
43 0.007155927914382
44 -0.000001608155817
45 -0.000000375247865
46 0.000079438465096
47 0.000180249575059
48 0.023614676054717
49 -0.000002923252046
50 0.000001492205286
 Sym=     11.1
 Ene=       0.2078
 Spin= Alpha
 Occup=    0.000000
1 0.020434393554114
2 -0.063160321954013
3 -0.67349504232635
4 -0.000045576156030
5 -0.14193571881568
6 0.12452326099370
7 -0.000095295332154
8 -0.27686487025044
9 0.30853878471534
10 0.004486943113649
11 -0.004535786468149
12 0.000048843354499
13 -0.000005293486105
14 0.000002830538142
15 0.011764125345576
16 0.059317045525208
17 -0.14421917929218
18 -1.69720059461177
19 0.000053048092671
20 -0.052576745466806
21 -0.25160143249380
22 0.000112653641142
23 -0.023284167921216
24 -0.47573484534537
25 0.021115027209168
26 -0.018911418161524
27 -0.002203609047644
28 0.000005325165436
29 0.000004393265088
30 0.003691353437351
31 0.036158819447776
32 1.46060342342751
33 0.000003233760783
34 -0.012647644214162
35 -0.014984040875873
36 0.033760646039720
37 0.88892535997783
38 -0.000000123714286
39 0.014896825258695
40 -0.007486522609669
41 -0.064383404496779
42 0.020187951920657
43 -0.000000360255094
44 -0.000804514666233
45 0.006818133852080
46 -0.019631345035071
47 0.99474654554123
48 -0.000002919939739
49 -0.007591396489105
50 0.012499305165218
 Sym=     12.1
 Ene=       0.2211
 Spin= Alpha
 Occup=    0.000000
1 -0.038408849839030
2 0.15452080644356
3 1.03620901490553
4 0.000079012115624
5 0.24871947456925
6 -0.082720851175865
7 0.000134625984175
8 0.48178059093439
9 -0.35065730394683
10 -0.010463103767719
11 0.018598847474902
12 -0.008135743707183
13 0.000004347938322
14 -0.000003498207971
15 -0.004747644548908
16 0.029385803543162
17 -0.16942722721711
18 -0.78459736049680
19 -0.000057514241072
20 0.19231433351601
21 -0.010125812538273
22 -0.000113740397258
23 0.32467806735595
24 -0.21906216078787
25 0.010855028406264
26 -0.008428563354398
27 -0.002426465051866
28 0.000001298455217
29 -0.000002719464143
30 -0.014100153708001
31 -0.009821912860521
32 0.11039341471123
33 -0.000000934796098
34 -0.006386652046459
35 -0.000925160958309
36 0.066477801679381
37 1.32524945271114
38 -0.000002385635513
39 0.015331986439092
40 0.000041682388728
41 -0.001066409893813
42 0.022934163649494
43 0.000001338286841
44 -0.000839892629198
45 0.004615781578569
46 -0.092418640720368
47 -1.68578427763806
48 0.000004803184154
49 0.020542122145757
50 -0.007131355773203
 Sym=     13.1
 Ene=       0.2721
 Spin= Alpha
 Occup=    0.000000
1 0.026010867160229
2 -0.051076113404171
3 -0.80826511071904
4 -0.000021621804592
5 -0.11849366484976
6 0.040904079134976
7 -0.000001115754118
8 -0.78440191189116
9 0.12611326832451
10 0.017457696228676
11 -0.021995181095765
12 0.004537484867089
13 -0.000002793688445
14 0.000001469544511
15 0.020952606519261
16 -0.007315148143135
17 0.008099182758371
18 0.065301724399631
19 -0.000050794696121
20 0.39890009401077
21 0.068054811209576
22 -0.000124583542236
23 1.41177111758609
24 0.23320190321124
25 -0.003481104509357
26 -0.007457398728422
27 0.010938503237779
28 -0.000002581000427
29 -0.000002514562564
30 0.031498672847285
31 0.020747539496404
32 -1.90441117788575
33 -0.000002879137112
34 0.016721394103116
35 0.020718386421595
36 -0.034515333645824
37 1.78339325252752
38 -0.000002065308081
39 0.018928195008682
40 -0.014193981095344
41 -0.072885239074617
42 -0.070520866835288
43 0.000000663024633
44 0.003182048223260
45 0.003944898243022
46 -0.057518993672267
47 1.26382255953525
48 -0.000001331518243
49 -0.017491333633011
50 0.011743220783652
 Sym=     14.1
 Ene=       0.4566
 Spin= Alpha
 Occup=    0.000000
1 -0.052468264059734
2 0.14341954355245
3 3.77466339743308
4 -0.000035923790322
5 -0.14421074072900
6 0.25128869882697
7 0.000031502589475
8 -0.84174425198626
9 2.78120310259891
10 -0.031933366047156
11 -0.030187802697629
12 0.062121168744785
13 0.000006402121129
14 -0.000001604135059
15 -0.024593396684800
16 0.080151404866423
17 0.060404998193955
18 -3.60544492724618
19 -0.000035267982557
20 -0.018541903585272
21 0.094636685122926
22 0.000037038725885
23 -0.51592448050914
24 3.35425441986897
25 0.056617935048612
26 -0.027283570889458
27 -0.029334364159154
28 0.000011266115508
29 0.000003858151576
30 0.015694121557188
31 -0.27077671278459
32 -0.57504896322597
33 0.000001659980667
34 -0.015883190917931
35 0.004793510332542
36 -0.26860105646164
37 -0.34048920031582
38 -0.000003826703603
39 0.022440881676753
40 0.005950535937274
41 0.14822432606753
42 -0.046092561156021
43 0.000000179949188
44 -0.012851567086275
45 0.009004278469986
46 -0.085110589552081
47 1.11435372852967
48 0.000002694638307
49 0.018438618051147
50 0.002050859504139
 Sym=     15.1
 Ene=       0.5855
 Spin= Alpha
 Occup=    0.000000
1 -0.16716157194956
2 -0.53736603972503
3 1.01402362407146
4 -0.000006425161767
5 0.038466753802978
6 -0.49700418367966
7 0.000040352230208
8 -0.15778889797993
9 1.57286991807837
10 0.076136751114798
11 -0.018465501683888
12 -0.057671249430910
13 -0.000010629151385
14 0.000003095418795
15 0.11942859765435
16 -0.10426936943706
17 -0.53219913482597
18 -0.49053593240410
19 -0.000029990337737
20 -0.17848197135348
21 0.72483448802643
22 -0.000007232609015
23 0.19250993100133
24 -0.49833956515888
25 0.029074168904343
26 0.003096832884668
27 -0.032171001789011
28 0.000006963690719
29 0.000004285106549
30 -0.017497020173622
31 -0.14079442516547
32 0.008020634781079
33 0.000000007135575
34 -0.006057186130963
35 -0.048247845668490
36 0.42775719996297
37 -0.43975090244862
38 -0.000005061527852
39 0.020947951774874
40 -0.000514789529093
41 -0.46533202193546
42 0.64151263409449
43 0.000001329288386
44 -0.014430909030374
45 0.015542568851667
46 -0.63119662746131
47 0.91301040776027
48 -0.000001082885893
49 -0.053358984365054
50 0.085262824269949
 Sym=     16.1
 Ene=       0.6276
 Spin= Alpha
 Occup=    0.000000
1 -0.002560471133226
2 0.044835152814614
3 -0.50999270123186
4 0.000093726685923
5 -0.028687353703265
6 0.30309095758302
7 0.000028565569924
8 0.44528595004517
9 -1.59475350375276