[Molden Format]
[Molpro variables]
_NUMVAR=  709.0000000000000    
_EV2006= 0.3674930886769165E-01
_EV= 0.3674932534394180E-01
_KJOULE= 0.3808798324128737E-03
_KJOULE/MOL= 0.3808798324128737E-03
_CM= 0.4556335267302901E-05
_CM-1= 0.4556335267302901E-05
_KCAL= 0.1593601117815568E-02
_KCAL/MOL= 0.1593601117815568E-02
_KELVIN2006= 0.3166828861084835E-05
_KELVIN= 0.3166814820820034E-05
_HERTZ2006= 0.1519829850815779E-15
_HERTZ= 0.1519829846011223E-15
_HZ2006= 0.1519829850815779E-15
_HZ= 0.1519829846011223E-15
_TOA2006= 0.5291772490000000    
_TOA= 0.5291772090000000    
_TOANG2006= 0.5291772490000000    
_TOANG= 0.5291772090000000    
_TORAD= 0.1745329251994330E-01
_TOCM=  219474.6306700000    
_TODEBYE=  2.541580000000000    
_TOEV2006=  27.21139610000000    
_TOEV=  27.21138390000000    
_TOHERTZ2006=  6579683899900000.    
_TOHERTZ=  6579683920700000.    
_TOHZ2006=  6579683899900000.    
_TOHZ=  6579683920700000.    
_TOK2006=  315773.3000000000    
_TOK=  315774.7000000000    
_TOKCAL=  627.5096000000000    
_TOKELVIN2006=  315773.3000000000    
_TOKELVIN=  315774.7000000000    
_TOKJ=  2625.500000000000    
_TOKJOULE=  2625.500000000000    
_ANG2006=  1.889725988578923    
_ANG=  1.889726131421507    
_ANGSTROM2006=  1.889725988578923    
_ANGSTROM=  1.889726131421507    
_IGNORE_UNDEF=  2.000000000000000    
_STRICTCHECK=  0.000000000000000    
_SEW_ONEEL=  0.000000000000000    
_CPPDONE=FALSE
_DKROLL_DONE=  0.000000000000000    
_FOCKDONE=  0.000000000000000    
_GRADONE=FALSE
_HESSDONE=TRUE
_INTDONE=TRUE
_SCFDONE=FALSE
_MODUL_CUDA=FALSE
_MODUL_SLATER=FALSE
_MODUL_MRCC=FALSE
_MRCC_EXEC=
_FITC_AO_SAVED=FALSE
_FITC_MO_SAVED=FALSE
_SHARED_FS=TRUE
_LSTYP=SEWARD
_INTYP=INTS
_GEOMTYP=ZMAT
_GRADTYP=ALASKA
_DIRECT=FALSE
_SYNCM=  0.000000000000000    
_BASIS=CC-PVDZ
_ZORIENT=  1.000000000000000    
_NELEC=  16.00000000000000    
_SPIN=  0.000000000000000    
!SPIN=  0.000000000000000    
_OPTCONV= 0.1069288722019705E-02
_QSDSTEP=  0.000000000000000    
_QSDIRC=  0.000000000000000    
_PROGRAM=FREQ
_CPUSTEP=  0.000000000000000    
_SYSSTEP=  0.000000000000000    
_WALLSTEP= 0.9000000000000000E-01
!DFMP2=  0.000000000000000    
!DFSCF=  0.000000000000000    
!SCSGRD=  0.000000000000000    
_BASINP=  610.0000000000000    
_CPUTOT=  93.52000000000000    
_DFTEXFAC=  1.000000000000000    
_DMX=-0.8591935106671559E-06
_DMY= 0.2187328928046814    
_DMZ= 0.1851152999317438    
_FREQUENCIES= -1101.130311354727    
_EMP2= -78.22275431184551    
_ENERGR= -77.99377465037293    
_ENERGU= -78.27015267120092    
_ENERGY= -78.22275431184551    
_ENUC=  31.50316650466780    
_FREQSTEP=  37.00000000000000    
!RS2GRSTATE=  1.000000000000000    
!RS2GRSYM=  1.000000000000000    
_GRADENERG= -78.22274640792125    
_GRADEXFAC=  9999.000000000000    
_GRADMETHOD=TRUE
_GRADRECORD=  5200.100000000000    
_VIRIAL= 0.2561608678803679    
!GRID_FREEZE= -1.000000000000000    
_ITERATIONS=  0.000000000000000    
_LASTNELEC=  4.000000000000000    
_LASTSPIN=  0.000000000000000    
_LASTSYM=  1.000000000000000    
_MPP_PROG=  1.000000000000000    
_MSENERGY= -78.22275431184551    
_NPROC_MPP=  4.000000000000000    
_NPROC_SMP=  1.000000000000000    
_NUMSTEP=  0.000000000000000    
_OPTCONVMX= 0.6349274082731092E-03
_OPTCONVRMS= 0.9720806563815497E-04
_OPTGRAD= 0.1461084406944904E-03
_OPTGRADMX= 0.7623798417320307E-04
_OPTGRADRMS= 0.1328258551768095E-04
_OPTSTEP=  5.000000000000000    
_ORBITAL=  2142.200000000000    
_PI=  3.141592653589793    
!MCACT=  4.000000000000000    
!MCCLOSED=  6.000000000000000    
!MCFREEZE=  0.000000000000000    
!MCMS2=  0.000000000000000    
!MCNEL=  4.000000000000000    
!MCNSTSYM=  1.000000000000000    
!MCSTATE=  1.000000000000000    
!MCSYM=  1.000000000000000    
!MCWEIGHT=  1.000000000000000    
_SEIG_MIN= 0.4058440603508890E-02
_SEWPROP=TRUE
_STATUS=  1.000000000000000    
_SYSTOT=  6.660000000000000    
_VERSION=  2010001.000000000    
_WALLTOT=  247.9200000000000    
_ZPE= 0.4211790666185950E-01
_DATE=06-Sep-19
_LASTORB=MCSCF
_MACHINE=Linux-2.6.34-12-desktop/tt109(x86_64) 64 bit mpp version
_OUTPUT=/home/carlo/qm/combustion/barrierless/c2h4_c2h3_h/dist_1.8/molpro.xml
_PGROUP=C1
_TIME=02:08:24
_LIBMOL=/programs/molpro2010p/bin/../lib/
!SURFREC=  0.000000000000000    
!POLYREC=  0.000000000000000    
!DIPREC=  0.000000000000000    
!VSCFREC=  0.000000000000000    
!VCIREC=  0.000000000000000    
!PVCIREC=  0.000000000000000    
!VMP2REC=  0.000000000000000    
!VMCSCFREC=  0.000000000000000    
!GAREC=  0.000000000000000    
!SCFORB=  21002.00000000000    
!MCORB=  21422.00000000000    
!CIOCC=  10.00000000000000    
!CICORE=  2.000000000000000    
!CICLOS=  6.000000000000000    
!CIISTSYM=  1.000000000000000    
!CIISTMS2=  0.000000000000000    
!CIISTNEL=  12.00000000000000    
!NEWMOL=  0.000000000000000    
!NEWSYM=  0.000000000000000    
_SLFILES=slscratch
_NGSSTO=  9.000000000000000    
_SIN=SIN
_COS=COS
_TAN=TAN
_ACOS=ACOS
_ASIN=ASIN
_ATAN=ATAN
_COSH=COSH
_SINH=SINH
_TANH=TANH
_ABS=ABS
_MOD=MOD
_ERF=ERF
_REFC=REFC
_ERFC=ERFC
_HYPOT=HYPOT
_J0=J0
_J1=J1
_JN=JN
_GAMMA=GAMMA
_LGAMMA=LGAMMA
_Y0=Y0
_Y1=Y1
_YN=YN
_EXP=EXP
_LOG=LOG
_LOG10=LOG10
_SQRT=SQRT
_INT=INT
_NINT=NINT
_MAX=MAX
_MIN=MIN
_COSMO=  0.000000000000000    
_COSMOIT=  0.000000000000000    
_COSMOES=  0.000000000000000    
_COSMOEDS=  0.000000000000000    
_COSMOEC=  0.000000000000000    
_COSMOEDCORR=  0.000000000000000    
_FEPSI=  1.000000000000000    
_SL_IsMM=  0.000000000000000    
_SL_NSYM=  0.000000000000000    
_SL_System_BitSw=  0.000000000000000    
_SL_Unique_atoms=  0.000000000000000    
_SL_GRAD=  0.000000000000000    
_SL_MAXUPD_Hess=  5.000000000000000    
_SL_N_PRINT_COD=  5.000000000000000    
_SL_PRINT_CODES=  0.000000000000000    
_SL_BasType=  0.000000000000000    
_SL_Energy_Pred=  0.000000000000000    
_SL_New_Coords=  0.000000000000000    
_SL_Total_Nuclea=  0.000000000000000    
_SL_Highest_Mltp=  0.000000000000000    
_SL_Ref_Geom=  0.000000000000000    
!LATTICE= -1.000000000000000    
!NEWLATTICE=  0.000000000000000    
!LATGRAD_VAR=FALSE
!SEW_LATTICE=  1.000000000000000    
!LOCAL=  0.000000000000000    
!SAVEDOM= -1.000000000000000    
!RESTDOM= -1.000000000000000    
!SAVEDOM_HF= -1.000000000000000    
!RESTDOM_HF= -1.000000000000000    
!HESSREC=  5300.200000000000    
!FREQREC=  5400.200000000000    
!NMODREC=  5450.200000000000    
!GTASKS=  0.000000000000000    
!HTASKS=  5500.200000000000    
!THRCHG= 0.1000000000000000    
!DEBUG= -1.000000000000000    
!CFIT_CPHF=  0.000000000000000    
!RDOMAUX_CPHF=  3.000000000000000    
!THRAO_CPHF= 0.1000000000000000E-09
!THRMO_CPHF= 0.1000000000000000E-09
!THROV_CPHF= 0.1000000000000000E-11
!THRSW_CPHF= 0.1000000000000000E-09
!THRPROD_CPHF= 0.1000000000000000E-09
!THRAOPR_CPHF= 0.1000000000000000E-11
!CFIT_SCFGRD=  0.000000000000000    
!RDOMAUX_SCFGRD=  5.000000000000000    
!THRAO_SCFGRD= 0.1000000000000000E-09
!THRMO_SCFGRD= 0.1000000000000000E-09
!THROV_SCFGRD= 0.1000000000000000E-11
!THRSW_SCFGRD= 0.1000000000000000E-09
!THRPROD_SCFGRD= 0.1000000000000000E-09
!THRAOPR_SCFGRD= 0.1000000000000000E-11
!LOCFIT_SCF=  0.000000000000000    
!LOCFIT_MP2= -1.000000000000000    
_RIDOM=  0.000000000000000    
!CC2_METHOD=  0.000000000000000    
_BASIS2006=FALSE
_SVDDEL= -1.000000000000000    
_SVDDELA= -1.000000000000000    
_SVDDELP= -1.000000000000000    
_SVDDELF= -1.000000000000000    
_SVDDELS= -1.000000000000000    
_SVDDEL_ABS= -1.000000000000000    
_SVDDELA_ABS= -1.000000000000000    
_SVDDELP_ABS= -1.000000000000000    
_SVDDELF_ABS= -1.000000000000000    
_SVDDELS_ABS= -1.000000000000000    
_MAXBASIS=  0.000000000000000    
!OPT_CONICAL=  0.000000000000000    
!CLEARSP_JGRID=  0.000000000000000    
RCC1=  1.339199692756090    
RCC2=  1.096725517589114    
RCC3=  1.091909764315758    
RCH2=  1.090919782277010    
ACCC1=  119.7252876259245    
AHCC1=  122.3757741256048    
AHCC2=  118.7642211456448    
AHCC3=  130.3722542998892    
B1=  180.0000568617668    
B2=  180.0004710103985    
B3=  179.9996192529328    
RCH1=  1.800000000000000    
GX1= 0.1505401243430181E-05
GY1= 0.1666297858001359    
GZ1= -1.224867901581393    
GX2=-0.4778877191918416E-06
GY2=-0.7555017266787813E-01
GZ2=  1.294238269125846    
GX3=-0.8396013451662675E-05
GY3=  1.617643847928370    
GZ3=  2.489393201802809    
GX4= 0.7272678230943437E-05
GY4= -1.915948737403026    
GZ4=  2.227295428516778    
GX5=-0.9940152734991148E-05
GY5= -2.644833807909308    
GZ5= -3.139527814170000    
GX6=-0.1180757673619433E-05
GY6=  1.857799060767152    
GZ6= -2.403804747907840    
C1X1= 0.1505401243429710E-05
C1Y1= 0.1666297858001359    
C1Z1= -1.224867901581393    
C2X2=-0.4778877191920217E-06
C2Y2=-0.7555017266787813E-01
C2Z2=  1.294238269125846    
H3X3=-0.8396013451662451E-05
H3Y3=  1.617643847928370    
H3Z3=  2.489393201802809    
H4X4= 0.7272678230942770E-05
H4Y4= -1.915948737403026    
H4Z4=  2.227295428516778    
H5X5=-0.9940152734991270E-05
H5Y5= -2.644833807909308    
H5Z5= -3.139527814170000    
H6X6=-0.1180757673619956E-05
H6Y6=  1.857799060767152    
H6Z6= -2.403804747907840    
CBSEN= -78.22275431184551    
[Atoms] Angs
C     1    6         0.0000007966        0.0881766850       -0.6481721776
C     2    6        -0.0000002529       -0.0399794295        0.6848813950
H     3    1        -0.0000044430        0.8560202566        1.3173301466
H     4    1         0.0000038485       -1.0138764054        1.1786339785
H     5    1        -0.0000052601       -1.3995857727       -1.6613665663
H     6    1        -0.0000006248        0.9831049219       -1.2720386875
[GTO]
  1 0
 s    9  1.00
  0.6665000000D+04  0.6920001793D-03
  0.1000000000D+04  0.5329001381D-02
  0.2280000000D+03  0.2707700701D-01
  0.6471000000D+02  0.1017180264D+00
  0.2106000000D+02  0.2747400712D+00
  0.7495000000D+01  0.4485641162D+00
  0.2797000000D+01  0.2850740738D+00
  0.5215000000D+00  0.1520400394D-01
  0.1596000000D+00 -0.3191000827D-02
 s    9  1.00
  0.6665000000D+04 -0.1460000642D-03
  0.1000000000D+04 -0.1154000508D-02
  0.2280000000D+03 -0.5725002519D-02
  0.6471000000D+02 -0.2331201026D-01
  0.2106000000D+02 -0.6395502813D-01
  0.7495000000D+01 -0.1499810660D+00
  0.2797000000D+01 -0.1272620560D+00
  0.5215000000D+00  0.5445292395D+00
  0.1596000000D+00  0.5804962554D+00
 s    9  1.00
  0.6665000000D+04  0.0000000000D+00
  0.1000000000D+04  0.0000000000D+00
  0.2280000000D+03  0.0000000000D+00
  0.6471000000D+02  0.0000000000D+00
  0.2106000000D+02  0.0000000000D+00
  0.7495000000D+01  0.0000000000D+00
  0.2797000000D+01  0.0000000000D+00
  0.5215000000D+00  0.0000000000D+00
  0.1596000000D+00  0.1000000000D+01
 p    4  1.00
  0.9439000000D+01  0.3810902127D-01
  0.2002000000D+01  0.2094801169D+00
  0.5456000000D+00  0.5085572839D+00
  0.1517000000D+00  0.4688422617D+00
 p    4  1.00
  0.9439000000D+01  0.0000000000D+00
  0.2002000000D+01  0.0000000000D+00
  0.5456000000D+00  0.0000000000D+00
  0.1517000000D+00  0.1000000000D+01
 d    1  1.00
  0.5500000000D+00  0.1000000000D+01
  
  2 0
 s    9  1.00
  0.6665000000D+04  0.6920001793D-03
  0.1000000000D+04  0.5329001381D-02
  0.2280000000D+03  0.2707700701D-01
  0.6471000000D+02  0.1017180264D+00
  0.2106000000D+02  0.2747400712D+00
  0.7495000000D+01  0.4485641162D+00
  0.2797000000D+01  0.2850740738D+00
  0.5215000000D+00  0.1520400394D-01
  0.1596000000D+00 -0.3191000827D-02
 s    9  1.00
  0.6665000000D+04 -0.1460000642D-03
  0.1000000000D+04 -0.1154000508D-02
  0.2280000000D+03 -0.5725002519D-02
  0.6471000000D+02 -0.2331201026D-01
  0.2106000000D+02 -0.6395502813D-01
  0.7495000000D+01 -0.1499810660D+00
  0.2797000000D+01 -0.1272620560D+00
  0.5215000000D+00  0.5445292395D+00
  0.1596000000D+00  0.5804962554D+00
 s    9  1.00
  0.6665000000D+04  0.0000000000D+00
  0.1000000000D+04  0.0000000000D+00
  0.2280000000D+03  0.0000000000D+00
  0.6471000000D+02  0.0000000000D+00
  0.2106000000D+02  0.0000000000D+00
  0.7495000000D+01  0.0000000000D+00
  0.2797000000D+01  0.0000000000D+00
  0.5215000000D+00  0.0000000000D+00
  0.1596000000D+00  0.1000000000D+01
 p    4  1.00
  0.9439000000D+01  0.3810902127D-01
  0.2002000000D+01  0.2094801169D+00
  0.5456000000D+00  0.5085572839D+00
  0.1517000000D+00  0.4688422617D+00
 p    4  1.00
  0.9439000000D+01  0.0000000000D+00
  0.2002000000D+01  0.0000000000D+00
  0.5456000000D+00  0.0000000000D+00
  0.1517000000D+00  0.1000000000D+01
 d    1  1.00
  0.5500000000D+00  0.1000000000D+01
  
  3 0
 s    4  1.00
  0.1301000000D+02  0.1968498999D-01
  0.1962000000D+01  0.1379769298D+00
  0.4446000000D+00  0.4781477569D+00
  0.1220000000D+00  0.5012397451D+00
 s    4  1.00
  0.1301000000D+02  0.0000000000D+00
  0.1962000000D+01  0.0000000000D+00
  0.4446000000D+00  0.0000000000D+00
  0.1220000000D+00  0.1000000000D+01
 p    1  1.00
  0.7270000000D+00  0.1000000000D+01
  
  4 0
 s    4  1.00
  0.1301000000D+02  0.1968498999D-01
  0.1962000000D+01  0.1379769298D+00
  0.4446000000D+00  0.4781477569D+00
  0.1220000000D+00  0.5012397451D+00
 s    4  1.00
  0.1301000000D+02  0.0000000000D+00
  0.1962000000D+01  0.0000000000D+00
  0.4446000000D+00  0.0000000000D+00
  0.1220000000D+00  0.1000000000D+01
 p    1  1.00
  0.7270000000D+00  0.1000000000D+01
  
  5 0
 s    4  1.00
  0.1301000000D+02  0.1968498999D-01
  0.1962000000D+01  0.1379769298D+00
  0.4446000000D+00  0.4781477569D+00
  0.1220000000D+00  0.5012397451D+00
 s    4  1.00
  0.1301000000D+02  0.0000000000D+00
  0.1962000000D+01  0.0000000000D+00
  0.4446000000D+00  0.0000000000D+00
  0.1220000000D+00  0.1000000000D+01
 p    1  1.00
  0.7270000000D+00  0.1000000000D+01
  
  6 0
 s    4  1.00
  0.1301000000D+02  0.1968498999D-01
  0.1962000000D+01  0.1379769298D+00
  0.4446000000D+00  0.4781477569D+00
  0.1220000000D+00  0.5012397451D+00
 s    4  1.00
  0.1301000000D+02  0.0000000000D+00
  0.1962000000D+01  0.0000000000D+00
  0.4446000000D+00  0.0000000000D+00
  0.1220000000D+00  0.1000000000D+01
 p    1  1.00
  0.7270000000D+00  0.1000000000D+01
 
 
[MO]
 Sym=      1.1
 Ene=     -11.2661
 Spin= Alpha
 Occup=    2.000000
1 1.00062691715622
2 0.006120223429220
3 -0.008181635620169
4 -0.000000012330350
5 0.001324797356351
6 0.000482519566215
7 0.000000006130418
8 -0.000129160072363
9 -0.000773472706434
10 -0.000446418305024
11 -0.000109825049351
12 0.000556243354375
13 -0.000000001347483
14 0.000000000194712
15 -0.000996241288563
16 0.031184490060691
17 -0.000833680582064
18 0.002806155634181
19 -0.000000006916455
20 -0.000046612675439
21 0.000146290656992
22 -0.000000000842579
23 0.000149915011415
24 -0.001588471833458
25 0.000206698386173
26 -0.000059452927747
27 -0.000147245458426
28 0.000000001395239
29 0.000000002468273
30 -0.000489848147302
31 0.000161140813558
32 0.000093927977530
33 0.000000001009355
34 -0.000225380467834
35 -0.000093987046491
36 -0.000105054087944
37 0.000550028007782
38 0.000000000189929
39 -0.000022352600732
40 -0.000112020584006
41 -0.000619208143158
42 0.000300995030866
43 0.000000000411270
44 0.000140842441657
45 0.000142337368320
46 -0.000851225375866
47 0.001784767719651
48 -0.000000001903980
49 0.000678688503542
50 -0.000122153760407
 Sym=      2.1
 Ene=     -11.2412
 Spin= Alpha
 Occup=    2.000000
1 -0.032164496656534
2 -0.001026492872201
3 0.002803506279702
4 0.000000003526981
5 -0.000127140600506
6 -0.000343529728877
7 -0.000000000521493
8 -0.000295716782177
9 0.001218447585271
10 0.000324093818846
11 -0.000083751734473
12 -0.000240342084373
13 0.000000001571449
14 0.000000000607365
15 0.000104567096501
16 1.00092529113213
17 0.008402614826945
18 -0.009431072425493
19 0.000000005301731
20 0.000030172097455
21 0.000072531247874
22 -0.000000002945098
23 0.000029552615871
24 0.000574047512039
25 -0.000731371979869
26 0.000284531401738
27 0.000446840578131
28 -0.000000004948521
29 -0.000000000988441
30 -0.000038179288909
31 -0.000580122816922
32 0.001485491092366
33 -0.000000001884499
34 0.000478687932777
35 0.000264337425225
36 -0.000575805743384
37 0.001551658493633
38 0.000000002175590
39 -0.000507256016941
40 0.000177237234888
41 -0.000052236202435
42 0.000058401016882
43 -0.000000000094284
44 0.000000057934840
45 -0.000025139741620
46 0.000187374508907
47 0.000173730939096
48 0.000000000091576
49 -0.000132126076353
50 0.000099206481924
 Sym=      3.1
 Ene=      -1.0170
 Spin= Alpha
 Occup=    2.000000
1 -0.016771405717185
2 0.54538697198476
3 -0.12656412188067
4 -0.000000510515009
5 0.050118624900710
6 0.24713526056746
7 0.000000060300337
8 -0.013355983365296
9 -0.062666438614619
10 -0.010273614184158
11 -0.012630605259576
12 0.022904219443734
13 0.000000002533892
14 -0.000000040570558
15 -0.004526065900474
16 -0.023110447048896
17 0.66325216911153
18 -0.18893987532692
19 -0.000000031158604
20 0.027595529459749
21 -0.17550079055582
22 -0.000000086509574
23 -0.003610569635855
24 0.071327605291937
25 -0.007061675666558
26 -0.010501901079370
27 0.017563576745928
28 0.000000016354696
29 -0.000000008410125
30 -0.005587046279700
31 0.21571430822279
32 -0.10832038825367
33 0.000000077089688
34 -0.015840419182772
35 -0.013907783897463
36 0.21583803102362
37 -0.096260911055397
38 -0.000000075127380
39 0.016912826910969
40 -0.011061284150638
41 -0.012724899357483
42 -0.014480588342568
43 0.000000000652919
44 0.001026564415711
45 0.000079233941302
46 0.17556286721671
47 -0.073465608060022
48 0.000000008624333
49 -0.010196782180240
50 0.011700298944691
 Sym=      4.1
 Ene=      -0.7573
 Spin= Alpha
 Occup=    2.000000
1 -0.010284421575586
2 0.50629571636314
3 -0.10040604388524
4 -0.000000842419671
5 0.24262057149428
6 -0.11963375360631
7 0.000000073260949
8 -0.055454519256329
9 0.027618442376560
10 -0.002687887900853
11 0.007270251799282
12 -0.004582363898429
13 -0.000000023452202
14 -0.000000013311729
15 -0.005672862539496
16 0.010953845704091
17 -0.37426502001229
18 0.059458207178485
19 -0.000000562244446
20 0.10320204804405
21 -0.30075279238682
22 0.000000011945284
23 -0.021093219361322
24 0.065447475149103
25 0.000581865612059
26 -0.012691424852651
27 0.012109559240592
28 0.000000063504059
29 0.000000019473164
30 -0.008268595681767
31 -0.27597807570576
32 0.094760205393379
33 -0.000000085006908
34 0.016332099063346
35 0.006009524264112
36 -0.36681361698619
37 0.14563695249698
38 0.000000091270911
39 -0.022229638028128
40 0.006058614872429
41 -0.012889791532771
42 -0.020264777626603
43 0.000000003069703
44 0.001935772713333
45 0.000334955324512
46 0.48597300015482
47 -0.17844459910356
48 0.000000025647863
49 -0.022241742129012
50 0.017200029854521
 Sym=      5.1
 Ene=      -0.6124
 Spin= Alpha
 Occup=    2.000000
1 -0.001831470156802
2 -0.11273313165018
3 0.050949925991791
4 -0.000000139892438
5 0.26536286460563
6 -0.40704833834103
7 0.000000101609856
8 -0.066108218326068
9 0.10274455101684
10 0.000010268881394
11 0.012529287242890
12 -0.012539556124284
13 -0.000000039749933
14 0.000000002053048
15 0.005878995800500
16 -0.003226259622098
17 0.003046037539617
18 0.025069299121545
19 -0.000001451904452
20 0.33115204730983
21 0.49669806055139
22 0.000000406111149
23 -0.067175069369687
24 -0.11279868801984
25 -0.001240470467200
26 0.015997508812722
27 -0.014757038345522
28 -0.000000064628400
29 -0.000000015804944
30 0.008539978204775
31 0.54539027164369
32 -0.15860435955887
33 0.000000097486879
34 -0.019934733545484
35 -0.009021460779055
36 -0.060228316522757
37 0.021869597969068
38 -0.000000007231802
39 0.002181041542520
40 0.010036926986738
41 0.017005027465312
42 0.013553822621743
43 0.000000002070197
44 0.001083751724153
45 -0.001062647629445
46 0.34405041923942
47 -0.10777433623467
48 0.000000029387047
49 -0.013191154270085
50 0.004116781805223
 Sym=      6.1
 Ene=      -0.5673
 Spin= Alpha
 Occup=    2.000000
1 0.002866871989137
2 -0.039528061210599
3 -0.022256244823097
4 -0.000000042441602
5 -0.13543720545791
6 0.34197572405655
7 0.000000143734642
8 0.023256675982208
9 -0.092450038541583
10 0.002028087230540
11 -0.014127110749981
12 0.012099023519441
13 0.000000024684414
14 -0.000000098920386
15 0.027205714017141
16 0.000815076807962
17 0.036689957224941
18 -0.015146611379081
19 -0.000001760944490
20 0.53846186134946
21 -0.25363688643560
22 0.000000486495032
23 -0.10884136970950
24 0.049464652379238
25 -0.000234600562403
26 -0.011949991499867
27 0.012184592062271
28 0.000000053060892
29 -0.000000105731706
30 0.022850985052099
31 0.32789299329915
32 -0.079724772539051
33 0.000000033360054
34 -0.003428938806623
35 -0.014902786528312
36 -0.58926180666090
37 0.15790126842647
38 0.000000085582190
39 -0.017717246208821
40 0.010135341925374
41 0.022075176375638
42 0.022533112556744
43 -0.000000001178272
44 -0.001460738071817
45 0.000637500446330
46 -0.35716652887727
47 0.084987448922945
48 -0.000000019331110
49 0.009455408157238
50 -0.005234076369990
 Sym=      7.1
 Ene=      -0.3689
 Spin= Alpha
 Occup=    1.907721
1 0.000000030772133
2 -0.000000203918088
3 -0.000000315912467
4 0.61309996955793
5 0.000003223340336
6 0.000001794457065
7 -0.017729013626381
8 -0.000000170304047
9 -0.000000177464273
10 0.000000028842846
11 -0.000000082729840
12 0.000000053886994
13 0.000452936160016
14 0.029687844516022
15 -0.000000018734202
16 -0.000000011481577
17 -0.000000003144141
18 -0.000000009428325
19 0.59794642116775
20 0.000002246075289
21 -0.000000116606074
22 0.002775960439379
23 -0.000000069704894
24 0.000000075125656
25 0.000000027501185
26 0.000000005668478
27 -0.000000033169663
28 0.003646645633719
29 -0.028024055494690
30 -0.000000132629634
31 -0.000000473549048
32 0.000000148022094
33 0.013238809250870
34 0.000000068819851
35 0.000000026751940
36 0.000000080954662
37 -0.000000093023604
38 0.013207057716425
39 0.000000059802009
40 -0.000000008536799
41 -0.000003765562600
42 0.000000374303113
43 0.003504760339385
44 -0.000000097412144
45 -0.000000081857837
46 0.000000643349183
47 -0.000000219806225
48 0.013883569665094
49 0.000000027672117
50 0.000000054549342
 Sym=      8.1
 Ene=      -0.4017
 Spin= Alpha
 Occup=    1.866826
1 -0.003615471540819
2 0.23472967925381
3 0.054624695676929
4 0.000004156586789
5 -0.44061963818141
6 -0.28044880050278
7 0.000000028106674
8 -0.005771272941800
9 0.013002732796527
10 -0.004397400582722
11 0.008375696861564
12 -0.003978296278842
13 0.000000073842911
14 0.000000207733446
15 0.023413415010222
16 -0.000784800210725
17 -0.080794554968615
18 0.006878535634419
19 0.000003433746732
20 0.014292702876568
21 0.084635303921661
22 0.000000110542240
23 0.039036317436913
24 -0.012035233395616
25 0.000962229131828
26 -0.003210769415335
27 0.002248540283507
28 0.000000019344873
29 -0.000000208969895
30 0.023149684212558
31 0.088199999459689
32 0.012620303487506
33 0.000000078466854
34 0.000562205501110
35 0.000564222296313
36 -0.064097753670259
37 0.011091684518879
38 0.000000068180552
39 0.001075336402595
40 0.002087156206949
41 0.62733616401421
42 -0.015350659118071
43 0.000000085270463
44 0.011927224363787
45 0.008011780063519
46 -0.13312806228709
47 0.014747411111501
48 0.000000087436342
49 -0.005386522095822
50 -0.007041560985944
 Sym=      9.1
 Ene=       0.1726
 Spin= Alpha
 Occup=    0.133166
1 -0.022324975251572
2 -0.45966720579235
3 -0.067903474088832
4 -0.000006764852931
5 0.67807270722793
6 0.44145699914564
7 0.000000776724885
8 -0.045616655911062
9 -0.064757022119559
10 0.006541412548654
11 -0.017050185772864
12 0.010508773224210
13 0.000000116602968
14 0.000000166037439
15 -0.053532205390368
16 -0.002790562119939
17 0.061045798118121
18 0.022069734600753
19 0.000006444981258
20 -0.031881229019281
21 -0.099578990045583
22 0.000000114984113
23 -0.054814206103111
24 0.004419677000307
25 -0.005251722211590
26 0.006697082935702
27 -0.001445360724112
28 -0.000000022693208
29 0.000000105230503
30 -0.028331402817198
31 -0.10863655348182
32 0.008059808437518
33 0.000000084845916
34 -0.001140723847780
35 0.002948277708820
36 0.055809190108999
37 -0.020436630794980
38 0.000000119530772
39 -0.003118400285401
40 -0.003114216278537
41 1.02751573812944
42 -0.15970594949481
43 -0.000000049564476
44 -0.010861250943659
45 -0.005560533413213
46 0.13613658138370
47 -0.035888289942889
48 -0.000000076906895
49 0.009556732088347
50 0.008277444626060
 Sym=     10.1
 Ene=       0.2200
 Spin= Alpha
 Occup=    0.092287
1 -0.000000085071844
2 -0.000002518634411
3 -0.000000208812656
4 0.92902046488077
5 0.000006615425651
6 0.000003693794079
7 -0.090779460902246
8 -0.000000105915963
9 -0.000000225814413
10 0.000000505739084
11 -0.000000384166377
12 -0.000000121572707
13 -0.005395755944425
14 -0.005584097267067
15 -0.000000431714934
16 -0.000000002598484
17 0.000000538214616
18 0.000000092930044
19 -0.84968075431337
20 -0.000003412045631
21 -0.000000945997435
22 0.009242895484705
23 -0.000000308004056
24 0.000000135459853
25 0.000000108874449
26 -0.000000008631425
27 -0.000000100243025
28 0.000676022298224
29 -0.009680449409464
30 -0.000000276589216
31 -0.000000693355005
32 -0.000000165171972
33 -0.011040294063895
34 -0.000000070705985
35 -0.000000005071236
36 0.000000005908326
37 -0.000000105293598
38 -0.011084474471368
39 -0.000000082740344
40 0.000000008051698
41 0.000008621211658
42 -0.000001513160467
43 -0.001311142922136
44 -0.000000107053731
45 -0.000000068057540
46 0.000000596487293
47 -0.000000407745668
48 0.011520706576809
49 0.000000068609485
50 0.000000074805719
 Sym=     11.1
 Ene=       0.2092
 Spin= Alpha
 Occup=    0.000000
1 0.023369142196144
2 -0.040847397308048
3 -0.67469600505467
4 0.000000148538971
5 -0.15118574874729
6 0.12355621107507
7 0.000000569957131
8 -0.25344033822805
9 0.31989268010982
10 0.005634386216459
11 -0.004708308897226
12 -0.000926077319233
13 -0.000000032769552
14 -0.000000044455290
15 0.008278648060467
16 0.059041239530755
17 -0.14437996174362
18 -1.67397234113994
19 0.000000356143571
20 -0.094869317315792
21 -0.23526943249777
22 0.000000665150800
23 -0.12368075384244
24 -0.46802198113788
25 0.020767363115137
26 -0.017818577884076
27 -0.002948785231061
28 0.000000184247835
29 0.000000010606344
30 0.005752288322078
31 0.041655369957216
32 1.50300256453606
33 0.000000070990364
34 -0.014953122790561
35 -0.013809656629114
36 0.022639161285986
37 0.81697390859073
38 -0.000000056652634
39 0.013080213691163
40 -0.008578931731374
41 -0.061607155803773
42 -0.001209036186257
43 0.000000035100587
44 -0.000002465436988
45 0.007227308419552
46 -0.006059953711605
47 0.97248985219215
48 -0.000000012503950
49 -0.007969833197757
50 0.011679735958467
 Sym=     12.1
 Ene=       0.2265
 Spin= Alpha
 Occup=    0.000000
1 -0.037176308442512
2 0.13992502410503
3 1.01818626439421
4 -0.000000567070809
5 0.23879593472794
6 -0.084871877872538
7 -0.000000318101524
8 0.42963848802402
9 -0.29557755992722
10 -0.011046853619015
11 0.017895066727208
12 -0.006848213108192
13 -0.000000087844840
14 -0.000000001015830
15 -0.005560555973756
16 0.033472517015828
17 -0.15483611253337
18 -0.91528128154649
19 -0.000000851568314
20 0.21352052993757
21 -0.046356801131393
22 -0.000001921197377
23 0.37365386910161
24 -0.22335063970458
25 0.011993246362035
26 -0.012667026269815
27 0.000673779907781
28 0.000000134647508
29 0.000000042945865
30 -0.009604866167584
31 -0.009164692226850
32 0.040584476711491
33 0.000000021157791
34 -0.005768796635089
35 0.000286285601947
36 0.062802155021049
37 1.45948501642044
38 -0.000000065398021
39 0.017602762111768
40 -0.003863538558528
41 0.004296890645163
42 0.030202481085133
43 0.000000025535976
44 -0.002842822041252
45 0.005821120263012
46 -0.078668600836448
47 -1.59549542775479
48 -0.000000050662435
49 0.020372071475242
50 -0.008450775358421
 Sym=     13.1
 Ene=       0.2795
 Spin= Alpha
 Occup=    0.000000
1 -0.030567797053897
2 0.036813019284869
3 0.89879309144278
4 0.000000219321452
5 0.16200048821865
6 -0.047232123060134
7 -0.000002636617994
8 0.87665508864734
9 -0.19044601025442
10 -0.019553993106863
11 0.022806978209931
12 -0.003252985103068
13 -0.000000043243790
14 0.000000067498556
15 -0.021108469889855
16 0.007816532141379
17 -0.008926017704348
18 -0.097110226624236
19 0.000001771875661
20 -0.38335439278993
21 -0.020344100799220
22 0.000005901038746
23 -1.46058365030541
24 -0.070740104900734
25 0.003215862936687
26 0.000672374328178
27 -0.003888237264865
28 0.000000031942050
29 0.000000111814834
30 -0.035196706288912
31 -0.025749416864120
32 1.91343810338586
33 0.000000102971355
34 -0.019745381145964
35 -0.019190014817334
36 0.040347919347882
37 -1.76595019608286
38 0.000000056097655
39 -0.017068676119864
40 0.016597236934551
41 0.075682118432037
42 0.18161525403992
43 -0.000000030829752
44 0.003331685046939
45 0.006398501533233
46 0.054046906205432
47 -1.44500442377910
48 -0.000000000946444
49 0.018914844313613
50 -0.013885901026322
 Sym=     14.1
 Ene=       0.4590
 Spin= Alpha
 Occup=    0.000000
1 -0.066994654672852
2 0.058368922480780
3 3.80617362549110
4 0.000000938638475
5 -0.069716547094913
6 0.27805015067831
7 -0.000003112404923
8 -0.60041429288177
9 2.83601162489061
10 -0.041404262449328
11 -0.021187691957128
12 0.062591954406456
13 0.000000173855523
14 0.000000002313257
15 -0.006014628665556
16 0.078932093902080
17 0.062222161123382
18 -3.54554892696131
19 0.000000217901607
20 -0.013049074193465
21 0.12038539336633
22 -0.000002572859806
23 -0.14316590996402
24 3.33476419567392
25 0.055930249787895
26 -0.021491315750508
27 -0.034438934037386
28 0.000000429702595
29 -0.000000019649173
30 0.008136180441872
31 -0.27288760208515
32 -0.55345140523342
33 0.000000080346597
34 -0.017308885442773
35 0.003247121214441
36 -0.24673317390365
37 -0.40186983201027
38 -0.000000111963377
39 0.021993509211607
40 0.002794660507190
41 0.25185003762749
42 -0.12050332972516
43 -0.000000078683447
44 -0.005807718077669
45 0.008377455285620
46 -0.004874144136820
47 1.00161250546462
48 0.000000021521692
49 0.018817492622838
50 0.003653337212255
 Sym=     15.1
 Ene=       0.5680
 Spin= Alpha
 Occup=    0.000000
1 0.050238278250158
2 0.13593992579682
3 -0.52980643935045
4 -0.000000017246601
5 0.11667978958609
6 0.45776085639820
7 -0.000001055805147
8 -0.51787631232740
9 -1.82048232091487
10 -0.049063445872946
11 0.008681214445340