
    -----------------------------------------------------------------------
          Psi4: An Open-Source Ab Initio Electronic Structure Package
                               Psi4 1.3.2 release

                         Git: Rev {HEAD} ecbda83 


    R. M. Parrish, L. A. Burns, D. G. A. Smith, A. C. Simmonett,
    A. E. DePrince III, E. G. Hohenstein, U. Bozkaya, A. Yu. Sokolov,
    R. Di Remigio, R. M. Richard, J. F. Gonthier, A. M. James,
    H. R. McAlexander, A. Kumar, M. Saitow, X. Wang, B. P. Pritchard,
    P. Verma, H. F. Schaefer III, K. Patkowski, R. A. King, E. F. Valeev,
    F. A. Evangelista, J. M. Turney, T. D. Crawford, and C. D. Sherrill,
    J. Chem. Theory Comput. 13(7) pp 3185--3197 (2017).
    (doi: 10.1021/acs.jctc.7b00174)


                         Additional Contributions by
    P. Kraus, H. Kruse, M. H. Lechner, M. C. Schieber, R. A. Shaw,
    A. Alenaizan, R. Galvelis, Z. L. Glick, S. Lehtola, and J. P. Misiewicz

    -----------------------------------------------------------------------


    Psi4 started on: Monday, 09 September 2019 03:58PM

    Process ID: 8105
    Host:       Ewan
    PSIDATADIR: /home/snelliott/miniconda/envs/pacc-env-mini/share/psi4
    Memory:     500.0 MiB
    Threads:    1
    
  ==> Input File <==

--------------------------------------------------------------------------
#! 
memory 1 GB

molecule {

0 1
N  
H  1    R1 
H  1    R2  2    A2 
H  1    R3  2    A3  3    D3 
R1   =   1.018989
R2   =   1.018989
A2   = 105.997000
R3   =   1.018989
A3   = 105.999000
D3   = 112.362000
}
set basis 6-31g*
set scf_type pk
set reference rks
set mp2_type conv
optimize('B3LYP')
--------------------------------------------------------------------------

  Memory set to 953.674 MiB by Python driver.
gradient() will perform analytic gradient computation.

*** tstart() called on Ewan
*** at Mon Sep  9 15:58:58 2019

   => Loading Basis Set <=

    Name: 6-31G*
    Role: ORBITAL
    Keyword: BASIS
    atoms 1   entry N          line   128 file /home/snelliott/miniconda/envs/pacc-env-mini/share/psi4/basis/6-31gs.gbs 
    atoms 2-4 entry H          line    44 file /home/snelliott/miniconda/envs/pacc-env-mini/share/psi4/basis/6-31gs.gbs 


         ---------------------------------------------------------
                                   SCF
               by Justin Turney, Rob Parrish, Andy Simmonett
                          and Daniel G. A. Smith
                              RKS Reference
                        1 Threads,    953 MiB Core
         ---------------------------------------------------------

  ==> Geometry <==

    Molecular point group: c1
    Full point group: C1

    Geometry (in Angstrom), charge = 0, multiplicity = 1:

       Center              X                  Y                   Z               Mass       
    ------------   -----------------  -----------------  -----------------  -----------------
         N           -0.053619030822    -0.035921147744    -0.027069079849    14.003074004430
         H           -0.053619030822    -0.035921147744     0.991919920151     1.007825032230
         H           -0.053619030822     0.943608651589    -0.307889225741     1.007825032230
         H            0.852239656797    -0.408586495136    -0.307923417610     1.007825032230

  Running in c1 symmetry.

  Rotational constants: A =      9.79468  B =      9.79444  C =      6.31432 [cm^-1]
  Rotational constants: A = 293636.98747  B = 293630.04032  C = 189298.67432 [MHz]
  Nuclear repulsion =   11.881028479514823

  Charge       = 0
  Multiplicity = 1
  Electrons    = 10
  Nalpha       = 5
  Nbeta        = 5

  ==> Algorithm <==

  SCF Algorithm Type is PK.
  DIIS enabled.
  MOM disabled.
  Fractional occupation disabled.
  Guess Type is SAD.
  Energy threshold   = 1.00e-08
  Density threshold  = 1.00e-08
  Integral threshold = 0.00e+00

  ==> Primary Basis <==

  Basis Set: 6-31G*
    Blend: 6-31G*
    Number of shells: 12
    Number of basis function: 21
    Number of Cartesian functions: 21
    Spherical Harmonics?: false
    Max angular momentum: 2

  ==> DFT Potential <==

   => Composite Functional: B3LYP <= 

    B3LYP Hyb-GGA Exchange-Correlation Functional

    P. J. Stephens, F. J. Devlin, C. F. Chabalowski, and M. J. Frisch, J. Phys. Chem. 98, 11623 (1994)

    Deriv               =              1
    GGA                 =           TRUE
    Meta                =          FALSE

    Exchange Hybrid     =           TRUE
    MP2 Hybrid          =          FALSE

   => Exchange Functionals <=

    0.0800   Slater exchange
    0.7200         Becke 88

   => Exact (HF) Exchange <=

    0.2000               HF 

   => Correlation Functionals <=

    0.1900   Vosko, Wilk & Nusair (VWN5_RPA)
    0.8100   Lee, Yang & Parr

   => Molecular Quadrature <=

    Radial Scheme          =       TREUTLER
    Pruning Scheme         =           FLAT
    Nuclear Scheme         =       TREUTLER

    BS radius alpha        =              1
    Pruning alpha          =              1
    Radial Points          =             75
    Spherical Points       =            302
    Total Points           =          87806
    Total Blocks           =            704
    Max Points             =            256
    Max Functions          =             21

  ==> Pre-Iterations <==

   -------------------------------------------------------
    Irrep   Nso     Nmo     Nalpha   Nbeta   Ndocc  Nsocc
   -------------------------------------------------------
     A         21      21       0       0       0       0
   -------------------------------------------------------
    Total      21      21       5       5       5       0
   -------------------------------------------------------

  ==> Integral Setup <==

  Using in-core PK algorithm.
   Calculation information:
      Number of atoms:                   4
      Number of AO shells:              12
      Number of primitives:             27
      Number of atomic orbitals:        21
      Number of basis functions:        21

      Integral cutoff                 1.00e-12
      Number of threads:                 1

  Performing in-core PK
  Using 53592 doubles for integral storage.
  We computed 3081 shell quartets total.
  Whereas there are 3081 unique shell quartets.

  ==> DiskJK: Disk-Based J/K Matrices <==

    J tasked:                  Yes
    K tasked:                  Yes
    wK tasked:                  No
    Memory [MiB]:              662
    Schwarz Cutoff:          1E-12

    OpenMP threads:              1

  Cached 100.0% of DFT collocation blocks in 0.052 [GiB].

  Minimum eigenvalue in the overlap matrix is 2.2395352340E-02.
  Using Symmetric Orthogonalization.

  SCF Guess: Superposition of Atomic Densities via on-the-fly atomic UHF.

  ==> Iterations <==

                        Total Energy        Delta E     RMS |[F,P]|

   @RKS iter SAD:   -56.20288044601483   -5.62029e+01   0.00000e+00 
   @RKS iter   1:   -56.34291151233733   -1.40031e-01   3.31230e-02 DIIS
   @RKS iter   2:   -56.18395676231152    1.58955e-01   4.20917e-02 DIIS
   @RKS iter   3:   -56.54769832119732   -3.63742e-01   1.04268e-03 DIIS
   @RKS iter   4:   -56.54794240740034   -2.44086e-04   1.39971e-04 DIIS
   @RKS iter   5:   -56.54794580863500   -3.40123e-06   2.52708e-05 DIIS
   @RKS iter   6:   -56.54794592607514   -1.17440e-07   1.08681e-06 DIIS
   @RKS iter   7:   -56.54794592636656   -2.91422e-10   5.15657e-08 DIIS
   @RKS iter   8:   -56.54794592636766   -1.10134e-12   8.55153e-09 DIIS
  Energy and wave function converged.


  ==> Post-Iterations <==

    Orbital Energies [Eh]
    ---------------------

    Doubly Occupied:                                                      

       1A    -14.305670     2A     -0.844981     3A     -0.452595  
       4A     -0.452591     5A     -0.251699  

    Virtual:                                                              

       6A      0.078831     7A      0.168064     8A      0.168065  
       9A      0.683773    10A      0.683780    11A      0.721895  
      12A      0.915694    13A      0.915696    14A      0.921052  
      15A      1.153349    16A      1.675637    17A      1.675640  
      18A      1.944495    19A      2.403312    20A      2.403313  
      21A      3.669076  

    Final Occupation by Irrep:
              A 
    DOCC [     5 ]

  @RKS Final Energy:   -56.54794592636766

   => Energetics <=

    Nuclear Repulsion Energy =             11.8810284795148231
    One-Electron Energy =                 -99.5729737859028745
    Two-Electron Energy =                  37.6418055574021793
    DFT Exchange-Correlation Energy =      -6.4978061773817917
    Empirical Dispersion Energy =           0.0000000000000000
    VV10 Nonlocal Energy =                  0.0000000000000000
    Total Energy =                        -56.5479459263676603

Computation Completed


Properties will be evaluated at   0.000000,   0.000000,   0.000000 [a0]

Properties computed using the SCF density matrix

  Nuclear Dipole Moment: [e a0]
     X:     0.6986      Y:     0.4680      Z:     0.3527

  Electronic Dipole Moment: [e a0]
     X:    -0.1258      Y:    -0.0843      Z:    -0.0635

  Dipole Moment: [e a0]
     X:     0.5728      Y:     0.3837      Z:     0.2892     Total:     0.7476

  Dipole Moment: [D]
     X:     1.4559      Y:     0.9753      Z:     0.7350     Total:     1.9003


*** tstop() called on Ewan at Mon Sep  9 15:59:00 2019
Module time:
	user time   =       1.62 seconds =       0.03 minutes
	system time =       0.02 seconds =       0.00 minutes
	total time  =          2 seconds =       0.03 minutes
Total time:
	user time   =       1.62 seconds =       0.03 minutes
	system time =       0.02 seconds =       0.00 minutes
	total time  =          2 seconds =       0.03 minutes

*** tstart() called on Ewan
*** at Mon Sep  9 15:59:00 2019


         ------------------------------------------------------------
                                   SCF GRAD                          
                          Rob Parrish, Justin Turney,                
                       Andy Simmonett, and Alex Sokolov              
         ------------------------------------------------------------

  ==> Geometry <==

    Molecular point group: c1
    Full point group: C1

    Geometry (in Angstrom), charge = 0, multiplicity = 1:

       Center              X                  Y                   Z               Mass       
    ------------   -----------------  -----------------  -----------------  -----------------
         N           -0.053619030822    -0.035921147744    -0.027069079849    14.003074004430
         H           -0.053619030822    -0.035921147744     0.991919920151     1.007825032230
         H           -0.053619030822     0.943608651589    -0.307889225741     1.007825032230
         H            0.852239656797    -0.408586495136    -0.307923417610     1.007825032230

  Nuclear repulsion =   11.881028479514823

  ==> Basis Set <==

  Basis Set: 6-31G*
    Blend: 6-31G*
    Number of shells: 12
    Number of basis function: 21
    Number of Cartesian functions: 21
    Spherical Harmonics?: false
    Max angular momentum: 2

  ==> DirectJKGrad: Integral-Direct SCF Gradients <==

    Gradient:                    1
    J tasked:                  Yes
    K tasked:                  Yes
    wK tasked:                  No
    Integrals threads:           1
    Schwarz Cutoff:          0E+00

  ==> DFT Potential <==

   => Composite Functional: B3LYP <= 

    B3LYP Hyb-GGA Exchange-Correlation Functional

    P. J. Stephens, F. J. Devlin, C. F. Chabalowski, and M. J. Frisch, J. Phys. Chem. 98, 11623 (1994)

    Deriv               =              1
    GGA                 =           TRUE
    Meta                =          FALSE

    Exchange Hybrid     =           TRUE
    MP2 Hybrid          =          FALSE

   => Exchange Functionals <=

    0.0800   Slater exchange
    0.7200         Becke 88

   => Exact (HF) Exchange <=

    0.2000               HF 

   => Correlation Functionals <=

    0.1900   Vosko, Wilk & Nusair (VWN5_RPA)
    0.8100   Lee, Yang & Parr

   => Molecular Quadrature <=

    Radial Scheme          =       TREUTLER
    Pruning Scheme         =           FLAT
    Nuclear Scheme         =       TREUTLER

    BS radius alpha        =              1
    Pruning alpha          =              1
    Radial Points          =             75
    Spherical Points       =            302
    Total Points           =          87806
    Total Blocks           =            704
    Max Points             =            256
    Max Functions          =             21


  -Total Gradient:
     Atom            X                  Y                   Z
    ------   -----------------  -----------------  -----------------
       1        0.000714070881     0.000467570204     0.000355982241
       2       -0.000241174559    -0.000159005607    -0.000112582496
       3       -0.000239753345    -0.000152037451    -0.000121945608
       4       -0.000231809528    -0.000163068289    -0.000125070282


*** tstop() called on Ewan at Mon Sep  9 15:59:00 2019
Module time:
	user time   =       0.26 seconds =       0.00 minutes
	system time =       0.01 seconds =       0.00 minutes
	total time  =          0 seconds =       0.00 minutes
Total time:
	user time   =       1.88 seconds =       0.03 minutes
	system time =       0.03 seconds =       0.00 minutes
	total time  =          2 seconds =       0.03 minutes

			-----------------------------------------
			 OPTKING 2.0: for geometry optimizations 
			  - R.A. King,  Bethel University        
			-----------------------------------------

	Internal coordinates to be generated automatically.
	Detected frag 1 with atoms:  1 2 3 4
	---Fragment 1 Bond Connectivity---
	 1 : 2 3 4
	 2 : 1
	 3 : 1
	 4 : 1

	---Fragment 1 Geometry and Gradient---
	 N          -0.1013252834       -0.0678811313       -0.0511531474
	 H          -0.1013252834       -0.0678811313        1.8744569875
	 H          -0.1013252834        1.7831619211       -0.5818263136
	 H           1.6104995446       -0.7721165744       -0.5818909269
	             0.0007140709        0.0004675702        0.0003559822
	            -0.0002411746       -0.0001590056       -0.0001125825
	            -0.0002397533       -0.0001520375       -0.0001219456
	            -0.0002318095       -0.0001630683       -0.0001250703

	Previous optimization step data not found.  Starting new optimization.

	---Fragment 1 Intrafragment Coordinates---
	 - Coordinate -           - BOHR/RAD -       - ANG/DEG -
	 R(1,2)           =         1.925610	       1.018989
	 R(1,3)           =         1.925610	       1.018989
	 R(1,4)           =         1.925610	       1.018989
	 B(2,1,3)         =         1.849997	     105.997000
	 B(2,1,4)         =         1.850032	     105.999000
	 B(3,1,4)         =         1.850011	     105.997839

	Current energy   :       -56.5479459264

	Generating empirical Hessian (Schlegel '84) for each fragment.
	Taking RFO optimization step.
	Going to follow RFO solution 1.
	Using RFO vector 1.
	Norm of target step-size    0.00540
	Projected energy change by RFO approximation:        -0.0000055228

	Back-transformation to cartesian coordinates...
	Successfully converged to displaced geometry.

	--- Internal Coordinate Step in ANG or DEG, aJ/ANG or AJ/DEG ---
	 ---------------------------------------------------------------------------
	   Coordinate                Previous        Force       Change         New 
	   ----------                --------       ------       ------       ------
	    1 R(1,2)          =      1.018989     0.000918     0.000133     1.019122
	    2 R(1,3)          =      1.018989     0.000914     0.000132     1.019121
	    3 R(1,4)          =      1.018989     0.000936     0.000135     1.019124
	    4 B(2,1,3)        =    105.997000    -0.000038    -0.177188   105.819812
	    5 B(2,1,4)        =    105.999000    -0.000038    -0.180334   105.818666
	    6 B(3,1,4)        =    105.997839    -0.000038    -0.178919   105.818920
	 ---------------------------------------------------------------------------
	Successfully symmetrized geometry.

  ==> Convergence Check <==

  Measures of convergence in internal coordinates in au.
  Criteria marked as inactive (o), active & met (*), and active & unmet ( ).
  --------------------------------------------------------------------------------------------- ~
   Step     Total Energy     Delta E     MAX Force     RMS Force      MAX Disp      RMS Disp    ~
  --------------------------------------------------------------------------------------------- ~
    Convergence Criteria    1.00e-06 *    3.00e-04 *             o    1.20e-03 *             o  ~
  --------------------------------------------------------------------------------------------- ~
      1     -56.54794593   -5.65e+01      5.02e-04      3.61e-04 o    3.15e-03      2.21e-03 o  ~
  ---------------------------------------------------------------------------------------------

	Writing optimization data to binary file.
	Structure for next step:
	Cartesian Geometry (in Angstrom)
	    N    -0.0551632938  -0.0369454068  -0.0278455029
	    H    -0.0527827445  -0.0353768299   0.9912720608
	    H    -0.0527895322   0.9431416367  -0.3071862022
	    H     0.8521181321  -0.4076395409  -0.3072021601
			--------------------------
			 OPTKING Finished Execution 
			--------------------------

    Structure for next step:
    Molecular point group: c1
    Full point group: C1

    Geometry (in Angstrom), charge = 0, multiplicity = 1:

    N       
    H             1          R1
    H             1          R2      2          A2
    H             1          R3      2          A3      3          D3

    A2        =  105.8198119874
    A3        =  105.8186662837
    D3        =  112.0094755145
    R1        =    1.0191215551
    R2        =    1.0191209359
    R3        =    1.0191240734

gradient() will perform analytic gradient computation.

*** tstart() called on Ewan
*** at Mon Sep  9 15:59:00 2019

   => Loading Basis Set <=

    Name: 6-31G*
    Role: ORBITAL
    Keyword: BASIS
    atoms 1   entry N          line   128 file /home/snelliott/miniconda/envs/pacc-env-mini/share/psi4/basis/6-31gs.gbs 
    atoms 2-4 entry H          line    44 file /home/snelliott/miniconda/envs/pacc-env-mini/share/psi4/basis/6-31gs.gbs 


         ---------------------------------------------------------
                                   SCF
               by Justin Turney, Rob Parrish, Andy Simmonett
                          and Daniel G. A. Smith
                              RKS Reference
                        1 Threads,    953 MiB Core
         ---------------------------------------------------------

  ==> Geometry <==

    Molecular point group: c1
    Full point group: C1

    Geometry (in Angstrom), charge = 0, multiplicity = 1:

       Center              X                  Y                   Z               Mass       
    ------------   -----------------  -----------------  -----------------  -----------------
         N           -0.053809110579    -0.036287722450    -0.027434566492    14.003074004430
         H           -0.053809110579    -0.036287722450     0.991686988636     1.007825032230
         H           -0.053809110579     0.944232770524    -0.305260131987     1.007825032230
         H            0.855260851028    -0.403750722004    -0.305241380413     1.007825032230

  Running in c1 symmetry.

  Rotational constants: A =      9.78055  B =      9.78044  C =      6.32756 [cm^-1]
  Rotational constants: A = 293213.37919  B = 293210.07691  C = 189695.53214 [MHz]
  Nuclear repulsion =   11.880625136092219

  Charge       = 0
  Multiplicity = 1
  Electrons    = 10
  Nalpha       = 5
  Nbeta        = 5

  ==> Algorithm <==

  SCF Algorithm Type is PK.
  DIIS enabled.
  MOM disabled.
  Fractional occupation disabled.
  Guess Type is READ.
  Energy threshold   = 1.00e-08
  Density threshold  = 1.00e-08
  Integral threshold = 0.00e+00

  ==> Primary Basis <==

  Basis Set: 6-31G*
    Blend: 6-31G*
    Number of shells: 12
    Number of basis function: 21
    Number of Cartesian functions: 21
    Spherical Harmonics?: false
    Max angular momentum: 2

  ==> DFT Potential <==

   => Composite Functional: B3LYP <= 

    B3LYP Hyb-GGA Exchange-Correlation Functional

    P. J. Stephens, F. J. Devlin, C. F. Chabalowski, and M. J. Frisch, J. Phys. Chem. 98, 11623 (1994)

    Deriv               =              1
    GGA                 =           TRUE
    Meta                =          FALSE

    Exchange Hybrid     =           TRUE
    MP2 Hybrid          =          FALSE

   => Exchange Functionals <=

    0.0800   Slater exchange
    0.7200         Becke 88

   => Exact (HF) Exchange <=

    0.2000               HF 

   => Correlation Functionals <=

    0.1900   Vosko, Wilk & Nusair (VWN5_RPA)
    0.8100   Lee, Yang & Parr

   => Molecular Quadrature <=

    Radial Scheme          =       TREUTLER
    Pruning Scheme         =           FLAT
    Nuclear Scheme         =       TREUTLER

    BS radius alpha        =              1
    Pruning alpha          =              1
    Radial Points          =             75
    Spherical Points       =            302
    Total Points           =          87805
    Total Blocks           =            704
    Max Points             =            256
    Max Functions          =             21

   => Loading Basis Set <=

    Name: 6-31G*
    Role: ORBITAL
    Keyword: BASIS
    atoms 1   entry N          line   128 file /home/snelliott/miniconda/envs/pacc-env-mini/share/psi4/basis/6-31gs.gbs 
    atoms 2-4 entry H          line    44 file /home/snelliott/miniconda/envs/pacc-env-mini/share/psi4/basis/6-31gs.gbs 

  Reading orbitals from file 180, no projection.

  ==> Pre-Iterations <==

   -------------------------------------------------------
    Irrep   Nso     Nmo     Nalpha   Nbeta   Ndocc  Nsocc
   -------------------------------------------------------
     A         21      21       0       0       0       0
   -------------------------------------------------------
    Total      21      21       5       5       5       0
   -------------------------------------------------------

  ==> Integral Setup <==

  Using in-core PK algorithm.
   Calculation information:
      Number of atoms:                   4
      Number of AO shells:              12
      Number of primitives:             27
      Number of atomic orbitals:        21
      Number of basis functions:        21

      Integral cutoff                 1.00e-12
      Number of threads:                 1

  Performing in-core PK
  Using 53592 doubles for integral storage.
  We computed 3081 shell quartets total.
  Whereas there are 3081 unique shell quartets.

  ==> DiskJK: Disk-Based J/K Matrices <==

    J tasked:                  Yes
    K tasked:                  Yes
    wK tasked:                  No
    Memory [MiB]:              662
    Schwarz Cutoff:          1E-12

    OpenMP threads:              1

  Cached 100.0% of DFT collocation blocks in 0.052 [GiB].

  Minimum eigenvalue in the overlap matrix is 2.2368701345E-02.
  Using Symmetric Orthogonalization.

  SCF Guess: Orbitals guess was supplied from a previous computation.

  ==> Iterations <==

                        Total Energy        Delta E     RMS |[F,P]|

   @RKS iter   0:   -56.54760306369407   -5.65476e+01   1.20103e-04 
   @RKS iter   1:   -56.54794736379282   -3.44300e-04   2.36454e-05 DIIS
   @RKS iter   2:   -56.54794737823935   -1.44465e-08   2.44012e-05 DIIS
   @RKS iter   3:   -56.54794748506847   -1.06829e-07   4.08463e-06 DIIS
   @RKS iter   4:   -56.54794748833689   -3.26842e-09   2.37929e-07 DIIS
   @RKS iter   5:   -56.54794748834999   -1.31024e-11   3.83435e-08 DIIS
   @RKS iter   6:   -56.54794748835042   -4.26326e-13   5.35907e-09 DIIS
  Energy and wave function converged.


  ==> Post-Iterations <==

    Orbital Energies [Eh]
    ---------------------

    Doubly Occupied:                                                      

       1A    -14.305880     2A     -0.845321     3A     -0.452390  
       4A     -0.452386     5A     -0.252224  

    Virtual:                                                              

       6A      0.078705     7A      0.167919     8A      0.167920  
       9A      0.683308    10A      0.683312    11A      0.721898  
      12A      0.915414    13A      0.915416    14A      0.922232  
      15A      1.155427    16A      1.675444    17A      1.675446  
      18A      1.941670    19A      2.403362    20A      2.403365  
      21A      3.668645  

    Final Occupation by Irrep:
              A 
    DOCC [     5 ]

  @RKS Final Energy:   -56.54794748835042

   => Energetics <=

    Nuclear Repulsion Energy =             11.8806251360922186
    One-Electron Energy =                 -99.5709045351223381
    Two-Electron Energy =                  37.6400408222465899
    DFT Exchange-Correlation Energy =      -6.4977089115668853
    Empirical Dispersion Energy =           0.0000000000000000
    VV10 Nonlocal Energy =                  0.0000000000000000
    Total Energy =                        -56.5479474883504167

Computation Completed


Properties will be evaluated at   0.000000,   0.000000,   0.000000 [a0]

Properties computed using the SCF density matrix

  Nuclear Dipole Moment: [e a0]
     X:     0.7010      Y:     0.4728      Z:     0.3574

  Electronic Dipole Moment: [e a0]
     X:    -0.1275      Y:    -0.0859      Z:    -0.0650

  Dipole Moment: [e a0]
     X:     0.5736      Y:     0.3868      Z:     0.2924     Total:     0.7511

  Dipole Moment: [D]
     X:     1.4579      Y:     0.9832      Z:     0.7433     Total:     1.9091


*** tstop() called on Ewan at Mon Sep  9 15:59:01 2019
Module time:
	user time   =       1.13 seconds =       0.02 minutes
	system time =       0.01 seconds =       0.00 minutes
	total time  =          1 seconds =       0.02 minutes
Total time:
	user time   =       3.02 seconds =       0.05 minutes
	system time =       0.04 seconds =       0.00 minutes
	total time  =          3 seconds =       0.05 minutes

*** tstart() called on Ewan
*** at Mon Sep  9 15:59:01 2019


         ------------------------------------------------------------
                                   SCF GRAD                          
                          Rob Parrish, Justin Turney,                
                       Andy Simmonett, and Alex Sokolov              
         ------------------------------------------------------------

  ==> Geometry <==

    Molecular point group: c1
    Full point group: C1

    Geometry (in Angstrom), charge = 0, multiplicity = 1:

       Center              X                  Y                   Z               Mass       
    ------------   -----------------  -----------------  -----------------  -----------------
         N           -0.053809110579    -0.036287722450    -0.027434566492    14.003074004430
         H           -0.053809110579    -0.036287722450     0.991686988636     1.007825032230
         H           -0.053809110579     0.944232770524    -0.305260131987     1.007825032230
         H            0.855260851028    -0.403750722004    -0.305241380413     1.007825032230

  Nuclear repulsion =   11.880625136092219

  ==> Basis Set <==

  Basis Set: 6-31G*
    Blend: 6-31G*
    Number of shells: 12
    Number of basis function: 21
    Number of Cartesian functions: 21
    Spherical Harmonics?: false
    Max angular momentum: 2

  ==> DirectJKGrad: Integral-Direct SCF Gradients <==

    Gradient:                    1
    J tasked:                  Yes
    K tasked:                  Yes
    wK tasked:                  No
    Integrals threads:           1
    Schwarz Cutoff:          0E+00

  ==> DFT Potential <==

   => Composite Functional: B3LYP <= 

    B3LYP Hyb-GGA Exchange-Correlation Functional

    P. J. Stephens, F. J. Devlin, C. F. Chabalowski, and M. J. Frisch, J. Phys. Chem. 98, 11623 (1994)

    Deriv               =              1
    GGA                 =           TRUE
    Meta                =          FALSE

    Exchange Hybrid     =           TRUE
    MP2 Hybrid          =          FALSE

   => Exchange Functionals <=

    0.0800   Slater exchange
    0.7200         Becke 88

   => Exact (HF) Exchange <=

    0.2000               HF 

   => Correlation Functionals <=

    0.1900   Vosko, Wilk & Nusair (VWN5_RPA)
    0.8100   Lee, Yang & Parr

   => Molecular Quadrature <=

    Radial Scheme          =       TREUTLER
    Pruning Scheme         =           FLAT
    Nuclear Scheme         =       TREUTLER

    BS radius alpha        =              1
    Pruning alpha          =              1
    Radial Points          =             75
    Spherical Points       =            302
    Total Points           =          87805
    Total Blocks           =            704
    Max Points             =            256
    Max Functions          =             21


  -Total Gradient:
     Atom            X                  Y                   Z
    ------   -----------------  -----------------  -----------------
       1        0.000301226863     0.000208581311     0.000160340239
       2       -0.000050699909    -0.000035876021    -0.000195389148
       3       -0.000051374230    -0.000198584220     0.000018902786
       4       -0.000201065818     0.000025674689     0.000020026029


*** tstop() called on Ewan at Mon Sep  9 15:59:02 2019
Module time:
	user time   =       0.26 seconds =       0.00 minutes
	system time =       0.00 seconds =       0.00 minutes
	total time  =          1 seconds =       0.02 minutes
Total time:
	user time   =       3.28 seconds =       0.05 minutes
	system time =       0.04 seconds =       0.00 minutes
	total time  =          4 seconds =       0.07 minutes

			-----------------------------------------
			 OPTKING 2.0: for geometry optimizations 
			  - R.A. King,  Bethel University        
			-----------------------------------------

	Previous internal coordinate definitions found.
	---Fragment 1 Geometry and Gradient---
	 N          -0.1016844820       -0.0685738571       -0.0518438170
	 H          -0.1016844820       -0.0685738571        1.8740168107
	 H          -0.1016844820        1.7843413350       -0.5768580465
	 H           1.6162087743       -0.7629782875       -0.5768226111
	             0.0003012269        0.0002085813        0.0001603402
	            -0.0000506999       -0.0000358760       -0.0001953891
	            -0.0000513742       -0.0001985842        0.0000189028
	            -0.0002010658        0.0000256747        0.0000200260

	---Fragment 1 Intrafragment Coordinates---
	 - Coordinate -           - BOHR/RAD -       - ANG/DEG -
	 R(1,2)           =         1.925861	       1.019122
	 R(1,3)           =         1.925859	       1.019121
	 R(1,4)           =         1.925865	       1.019124
	 B(2,1,3)         =         1.846904	     105.819812
	 B(2,1,4)         =         1.846884	     105.818666
	 B(3,1,4)         =         1.846889	     105.818920

	Current energy   :       -56.5479474884

	Energy change for the previous step:
		Projected    :        -0.0000055228
		Actual       :        -0.0000015620

	Performing BFGS update.
	Previous computed or guess Hessian on step 1.
	Steps to be used in Hessian update: 1
	Taking RFO optimization step.
	Going to follow RFO solution 1.
	Using RFO vector 1.
	Norm of target step-size    0.00218
	Projected energy change by RFO approximation:        -0.0000009654

	Back-transformation to cartesian coordinates...
	Successfully converged to displaced geometry.

	--- Internal Coordinate Step in ANG or DEG, aJ/ANG or AJ/DEG ---
	 ---------------------------------------------------------------------------
	   Coordinate                Previous        Force       Change         New 
	   ----------                --------       ------       ------       ------
	    1 R(1,2)          =      1.019122     0.001620     0.000318     1.019440
	    2 R(1,3)          =      1.019121     0.001613     0.000317     1.019438
	    3 R(1,4)          =      1.019124     0.001592     0.000313     1.019437
	    4 B(2,1,3)        =    105.819812    -0.000008    -0.064845   105.754967
	    5 B(2,1,4)        =    105.818666    -0.000008    -0.063252   105.755415
	    6 B(3,1,4)        =    105.818920    -0.000008    -0.062838   105.756082
	 ---------------------------------------------------------------------------
	Successfully symmetrized geometry.

  ==> Convergence Check <==

  Measures of convergence in internal coordinates in au.
  Criteria marked as inactive (o), active & met (*), and active & unmet ( ).
  ---------------------------------------------------------------------------------------------
   Step     Total Energy     Delta E     MAX Force     RMS Force      MAX Disp      RMS Disp   
  ---------------------------------------------------------------------------------------------
    Convergence Criteria    1.00e-06 *    3.00e-04 *             o    1.20e-03 *             o
  ---------------------------------------------------------------------------------------------
      2     -56.54794749   -1.56e-06      1.97e-04 *    1.57e-04 o    1.13e-03 *    8.92e-04 o  ~
  ---------------------------------------------------------------------------------------------


  **** Optimization is complete! (in 2 steps) ****

  ==> Optimization Summary <==

  Measures of convergence in internal coordinates in au.
  --------------------------------------------------------------------------------------------------------------- ~
   Step         Total Energy             Delta E       MAX Force       RMS Force        MAX Disp        RMS Disp  ~
  --------------------------------------------------------------------------------------------------------------- ~
      1     -56.547945926368    -56.547945926368      0.00050182      0.00036064      0.00314742      0.00221402  ~
      2     -56.547947488350     -0.000001561983      0.00019667      0.00015747      0.00113176      0.00089180  ~
  --------------------------------------------------------------------------------------------------------------- ~

	Writing optimization data to binary file.
	Final energy is    -56.5479474883504
	Final (previous) structure:
	Cartesian Geometry (in Angstrom)
	    N    -0.0538091104  -0.0362877223  -0.0274345664
	    H    -0.0538091104  -0.0362877223   0.9916869847
	    H    -0.0538091104   0.9442327668  -0.3052601308
	    H     0.8552608477  -0.4037507204  -0.3052413792
	Saving final (previous) structure.
			--------------------------
			 OPTKING Finished Execution 
			--------------------------

    Final optimized geometry and variables:
    Molecular point group: c1
    Full point group: C1

    Geometry (in Angstrom), charge = 0, multiplicity = 1:

    N       
    H             1          R1
    H             1          R2      2          A2
    H             1          R3      2          A3      3          D3

    A2        =  105.8198119874
    A3        =  105.8186662837
    D3        =  112.0094755145
    R1        =    1.0191215551
    R2        =    1.0191209359
    R3        =    1.0191240734

	Removing binary optimization data file.
	Cleaning optimization helper files.

    Psi4 stopped on: Monday, 09 September 2019 03:59PM
    Psi4 wall time for execution: 0:00:03.35

*** Psi4 exiting successfully. Buy a developer a beer!
