 Entering Gaussian System, Link 0=g09
 Input=run.inp
 Output=run.out
 Initial command:
 /soft/gaussian/09-e.01/g09/l1.exe "/blues/gpfs/home/elliott/Packages/PACC/moldriver/rcdriver/rundir/SPC/CH4/VNWKTOKETHGBQD/0/1/UHFFFAOYSA-N/ezvN4wR/RUN/OPTI/A00/Gau-53060.inp" -scrdir="/blues/gpfs/home/elliott/Packages/PACC/moldriver/rcdriver/rundir/SPC/CH4/VNWKTOKETHGBQD/0/1/UHFFFAOYSA-N/ezvN4wR/RUN/OPTI/A00/"
 Entering Link 1 = /soft/gaussian/09-e.01/g09/l1.exe PID=     53061.
  
 Copyright (c) 1988,1990,1992,1993,1995,1998,2003,2009,2015,
            Gaussian, Inc.  All Rights Reserved.
  
 This is part of the Gaussian(R) 09 program.  It is based on
 the Gaussian(R) 03 system (copyright 2003, Gaussian, Inc.),
 the Gaussian(R) 98 system (copyright 1998, Gaussian, Inc.),
 the Gaussian(R) 94 system (copyright 1995, Gaussian, Inc.),
 the Gaussian 92(TM) system (copyright 1992, Gaussian, Inc.),
 the Gaussian 90(TM) system (copyright 1990, Gaussian, Inc.),
 the Gaussian 88(TM) system (copyright 1988, Gaussian, Inc.),
 the Gaussian 86(TM) system (copyright 1986, Carnegie Mellon
 University), and the Gaussian 82(TM) system (copyright 1983,
 Carnegie Mellon University). Gaussian is a federally registered
 trademark of Gaussian, Inc.
  
 This software contains proprietary and confidential information,
 including trade secrets, belonging to Gaussian, Inc.
  
 This software is provided under written license and may be
 used, copied, transmitted, or stored only in accord with that
 written license.
  
 The following legend is applicable only to US Government
 contracts under FAR:
  
                    RESTRICTED RIGHTS LEGEND
  
 Use, reproduction and disclosure by the US Government is
 subject to restrictions as set forth in subparagraphs (a)
 and (c) of the Commercial Computer Software - Restricted
 Rights clause in FAR 52.227-19.
  
 Gaussian, Inc.
 340 Quinnipiac St., Bldg. 40, Wallingford CT 06492
  
  
 ---------------------------------------------------------------
 Warning -- This program may not be used in any manner that
 competes with the business of Gaussian, Inc. or will provide
 assistance to any competitor of Gaussian, Inc.  The licensee
 of this program is prohibited from giving any competitor of
 Gaussian, Inc. access to this program.  By using this program,
 the user acknowledges that Gaussian, Inc. is engaged in the
 business of creating and licensing software in the field of
 computational chemistry and represents and warrants to the
 licensee that it is not a competitor of Gaussian, Inc. and that
 it will not use this program in any manner prohibited above.
 ---------------------------------------------------------------
  

 Cite this work as:
 Gaussian 09, Revision E.01,
 M. J. Frisch, G. W. Trucks, H. B. Schlegel, G. E. Scuseria, 
 M. A. Robb, J. R. Cheeseman, G. Scalmani, V. Barone, B. Mennucci, 
 G. A. Petersson, H. Nakatsuji, M. Caricato, X. Li, H. P. Hratchian, 
 A. F. Izmaylov, J. Bloino, G. Zheng, J. L. Sonnenberg, M. Hada, 
 M. Ehara, K. Toyota, R. Fukuda, J. Hasegawa, M. Ishida, T. Nakajima, 
 Y. Honda, O. Kitao, H. Nakai, T. Vreven, J. A. Montgomery, Jr., 
 J. E. Peralta, F. Ogliaro, M. Bearpark, J. J. Heyd, E. Brothers, 
 K. N. Kudin, V. N. Staroverov, T. Keith, R. Kobayashi, J. Normand, 
 K. Raghavachari, A. Rendell, J. C. Burant, S. S. Iyengar, J. Tomasi, 
 M. Cossi, N. Rega, J. M. Millam, M. Klene, J. E. Knox, J. B. Cross, 
 V. Bakken, C. Adamo, J. Jaramillo, R. Gomperts, R. E. Stratmann, 
 O. Yazyev, A. J. Austin, R. Cammi, C. Pomelli, J. W. Ochterski, 
 R. L. Martin, K. Morokuma, V. G. Zakrzewski, G. A. Voth, 
 P. Salvador, J. J. Dannenberg, S. Dapprich, A. D. Daniels, 
 O. Farkas, J. B. Foresman, J. V. Ortiz, J. Cioslowski, 
 and D. J. Fox, Gaussian, Inc., Wallingford CT, 2013.
 
 ******************************************
 Gaussian 09:  ES64L-G09RevE.01 30-Nov-2015
                23-Aug-2019 
 ******************************************
 %mem=20GB
 %NProcShared=10
 Will use up to   10 processors via shared memory.
 ------------------------------------------------------
 #P b3lyp/cc-pvdz # SCF=(xqc) # POpt=() # int=ultrafine
 ------------------------------------------------------
 1/10=7,14=-1,26=4,38=1/1,3;
 2/12=2,17=6,18=5,29=3,40=1/2;
 3/5=16,11=2,16=1,25=1,30=1,71=1,74=-5,75=-5/1,2,3;
 4//1;
 5/5=2,8=3,13=1,38=5/2,8;
 6/7=2,8=2,9=2,10=2,28=1/1;
 7/29=1/1,2,3,16;
 1/10=7,14=-1,26=4/3(2);
 2/29=3/2;
 99//99;
 2/29=3/2;
 3/5=16,11=2,16=1,25=1,30=1,71=1,74=-5,75=-5/1,2,3;
 4/5=5,16=3,69=1/1;
 5/5=2,8=3,13=1,38=5/2,8;
 7//1,2,3,16;
 1/14=-1,26=4/3(-5);
 2/29=3/2;
 6/7=2,8=2,9=2,10=2,19=2,28=1/1;
 99/9=1/99;
 Leave Link    1 at Fri Aug 23 16:55:32 2019, MaxMem=  2684354560 cpu:         0.8
 (Enter /soft/gaussian/09-e.01/g09/l101.exe)
 --------
 comment:
 --------
 Symbolic Z-matrix:
 Charge =  0 Multiplicity = 1
 C
 H                    1    R1
 H                    1    R2       2    A2
 H                    1    R3       2    A3       3    D3       0
 H                    1    R4       2    A4       3    D4       0
       Variables:
  R1                    1.0933                   
  R2                    1.0933                   
  A2                  109.471                    
  R3                    1.0933                   
  A3                  109.471                    
  D3                  120.                       
  R4                    1.0933                   
  A4                  109.471                    
  D4                  240.                       
 
     3 tetrahedral angles replaced.
 NAtoms=      5 NQM=        5 NQMF=       0 NMMI=      0 NMMIF=      0
                NMic=       0 NMicF=      0.
    3 tetrahedral angles replaced.
                    Isotopes and Nuclear Properties:
 (Nuclear quadrupole moments (NQMom) in fm**2, nuclear magnetic moments (NMagM)
  in nuclear magnetons)

  Atom         1           2           3           4           5
 IAtWgt=          12           1           1           1           1
 AtmWgt=  12.0000000   1.0078250   1.0078250   1.0078250   1.0078250
 NucSpn=           0           1           1           1           1
 AtZEff=   0.0000000   0.0000000   0.0000000   0.0000000   0.0000000
 NQMom=    0.0000000   0.0000000   0.0000000   0.0000000   0.0000000
 NMagM=    0.0000000   2.7928460   2.7928460   2.7928460   2.7928460
 AtZNuc=   6.0000000   1.0000000   1.0000000   1.0000000   1.0000000
 Leave Link  101 at Fri Aug 23 16:55:33 2019, MaxMem=  2684354560 cpu:         0.7
 (Enter /soft/gaussian/09-e.01/g09/l103.exe)

 GradGradGradGradGradGradGradGradGradGradGradGradGradGradGradGradGradGrad
 Berny optimization.
 Initialization pass.
                       ----------------------------
                       !    Initial Parameters    !
                       ! (Angstroms and Degrees)  !
 ----------------------                            ----------------------
 !      Name          Value   Derivative information (Atomic Units)     !
 ------------------------------------------------------------------------
 !       R1          1.0933   estimate D2E/DX2                          !
 !       R2          1.0933   estimate D2E/DX2                          !
 !       A2        109.4712   estimate D2E/DX2                          !
 !       R3          1.0933   estimate D2E/DX2                          !
 !       A3        109.4712   estimate D2E/DX2                          !
 !       D3        120.0      estimate D2E/DX2                          !
 !       R4          1.0933   estimate D2E/DX2                          !
 !       A4        109.4712   estimate D2E/DX2                          !
 !       D4        240.0      estimate D2E/DX2                          !
 ------------------------------------------------------------------------
 Trust Radius=3.00D-01 FncErr=1.00D-07 GrdErr=1.00D-06
 Number of steps in this run=     20 maximum allowed number of steps=    100.
 GradGradGradGradGradGradGradGradGradGradGradGradGradGradGradGradGradGrad

 Leave Link  103 at Fri Aug 23 16:55:33 2019, MaxMem=  2684354560 cpu:         1.2
 (Enter /soft/gaussian/09-e.01/g09/l202.exe)
 ---------------------------------------------------------------------------------------------------
                            Z-MATRIX (ANGSTROMS AND DEGREES)
   CD    Cent   Atom    N1       Length/X        N2       Alpha/Y        N3        Beta/Z          J
 ---------------------------------------------------------------------------------------------------
      1      1  C 
      2      2  H        1   1.093296(     1)
      3      3  H        1   1.093296(     2)      2  109.471(     5)
      4      4  H        1   1.093296(     3)      2  109.471(     6)      3  120.000(     8)      0
      5      5  H        1   1.093296(     4)      2  109.471(     7)      3  240.000(     9)      0
 ---------------------------------------------------------------------------------------------------
                         Z-Matrix orientation:                         
 ---------------------------------------------------------------------
 Center     Atomic      Atomic             Coordinates (Angstroms)
 Number     Number       Type             X           Y           Z
 ---------------------------------------------------------------------
      1          6           0        0.000000    0.000000    0.000000
      2          1           0        0.000000    0.000000    1.093296
      3          1           0        1.030769    0.000000   -0.364432
      4          1           0       -0.515385   -0.892672   -0.364432
      5          1           0       -0.515385    0.892672   -0.364432
 ---------------------------------------------------------------------
                    Distance matrix (angstroms):
                    1          2          3          4          5
     1  C    0.000000
     2  H    1.093296   0.000000
     3  H    1.093296   1.785345   0.000000
     4  H    1.093296   1.785345   1.785345   0.000000
     5  H    1.093296   1.785345   1.785345   1.785345   0.000000
 Stoichiometry    CH4
 Framework group  TD[O(C),4C3(H)]
 Deg. of freedom     1
 Full point group                 TD      NOp  24
 Largest Abelian subgroup         D2      NOp   4
 Largest concise Abelian subgroup D2      NOp   4
                         Standard orientation:                         
 ---------------------------------------------------------------------
 Center     Atomic      Atomic             Coordinates (Angstroms)
 Number     Number       Type             X           Y           Z
 ---------------------------------------------------------------------
      1          6           0        0.000000    0.000000    0.000000
      2          1           0        0.631215    0.631215    0.631215
      3          1           0       -0.631215   -0.631215    0.631215
      4          1           0       -0.631215    0.631215   -0.631215
      5          1           0        0.631215   -0.631215   -0.631215
 ---------------------------------------------------------------------
 Rotational constants (GHZ):    157.3213999    157.3213999    157.3213999
 Leave Link  202 at Fri Aug 23 16:55:34 2019, MaxMem=  2684354560 cpu:         0.3
 (Enter /soft/gaussian/09-e.01/g09/l301.exe)
 Standard basis: CC-pVDZ (5D, 7F)
 Ernie: Thresh=  0.10000D-02 Tol=  0.10000D-05 Strict=F.
 Ernie:  2 primitive shells out of 42 were deleted.
 There are    11 symmetry adapted cartesian basis functions of A   symmetry.
 There are     8 symmetry adapted cartesian basis functions of B1  symmetry.
 There are     8 symmetry adapted cartesian basis functions of B2  symmetry.
 There are     8 symmetry adapted cartesian basis functions of B3  symmetry.
 There are    10 symmetry adapted basis functions of A   symmetry.
 There are     8 symmetry adapted basis functions of B1  symmetry.
 There are     8 symmetry adapted basis functions of B2  symmetry.
 There are     8 symmetry adapted basis functions of B3  symmetry.
    34 basis functions,    61 primitive gaussians,    35 cartesian basis functions
     5 alpha electrons        5 beta electrons
       nuclear repulsion energy        13.3948850293 Hartrees.
 IExCor=  402 DFT=T Ex+Corr=B3LYP ExCW=0 ScaHFX=  0.200000
 ScaDFX=  0.800000  0.720000  1.000000  0.810000 ScalE2=  1.000000  1.000000
 IRadAn=      5 IRanWt=     -1 IRanGd=            0 ICorTp=0 IEmpDi=  4
 NAtoms=    5 NActive=    5 NUniq=    2 SFac= 4.00D+00 NAtFMM=   60 NAOKFM=F Big=F
 Integral buffers will be    131072 words long.
 Raffenetti 2 integral format.
 Two-electron integral symmetry is turned on.
 Leave Link  301 at Fri Aug 23 16:55:34 2019, MaxMem=  2684354560 cpu:         1.8
 (Enter /soft/gaussian/09-e.01/g09/l302.exe)
 NPDir=0 NMtPBC=     1 NCelOv=     1 NCel=       1 NClECP=     1 NCelD=      1
         NCelK=      1 NCelE2=     1 NClLst=     1 CellRange=     0.0.
 One-electron integrals computed using PRISM.
 One-electron integral symmetry used in STVInt
 NBasis=    34 RedAO= T EigKep=  3.14D-02  NBF=    10     8     8     8
 NBsUse=    34 1.00D-06 EigRej= -1.00D+00 NBFU=    10     8     8     8
 Precomputing XC quadrature grid using
 IXCGrd= 4 IRadAn=           5 IRanWt=          -1 IRanGd=           0 AccXCQ= 0.00D+00.
 Generated NRdTot=       0 NPtTot=           0 NUsed=           0 NTot=          32
 NSgBfM=    35    35    35    35    35 MxSgAt=     5 MxSgA2=     5.
 Leave Link  302 at Fri Aug 23 16:55:35 2019, MaxMem=  2684354560 cpu:         2.9
 (Enter /soft/gaussian/09-e.01/g09/l303.exe)
 DipDrv:  MaxL=1.
 Leave Link  303 at Fri Aug 23 16:55:35 2019, MaxMem=  2684354560 cpu:         1.1
 (Enter /soft/gaussian/09-e.01/g09/l401.exe)
 ExpMin= 1.22D-01 ExpMax= 6.67D+03 ExpMxC= 2.28D+02 IAcc=3 IRadAn=         5 AccDes= 0.00D+00
 Harris functional with IExCor=  402 and IRadAn=       5 diagonalized for initial guess.
 HarFok:  IExCor=  402 AccDes= 0.00D+00 IRadAn=         5 IDoV= 1 UseB2=F ITyADJ=14
 ICtDFT=  3500011 ScaDFX=  1.000000  1.000000  1.000000  1.000000
 FoFCou: FMM=F IPFlag=           0 FMFlag=      100000 FMFlg1=           0
         NFxFlg=           0 DoJE=T BraDBF=F KetDBF=T FulRan=T
         wScrn=  0.000000 ICntrl=     500 IOpCl=  0 I1Cent=   200000004 NGrid=           0
         NMat0=    1 NMatS0=      1 NMatT0=    0 NMatD0=    1 NMtDS0=    0 NMtDT0=    0
 Petite list used in FoFCou.
 Harris En= -40.5533590461111    
 JPrj=0 DoOrth=F DoCkMO=F.
 Initial guess orbital symmetries:
       Occupied  (A1) (A1) (T2) (T2) (T2)
       Virtual   (A1) (T2) (T2) (T2) (T2) (T2) (T2) (T2) (T2) (T2)
                 (A1) (E) (E) (A1) (T1) (T1) (T1) (T2) (T2) (T2)
                 (T2) (T2) (T2) (E) (E) (A1) (T2) (T2) (T2)
 The electronic state of the initial guess is 1-A1.
 Leave Link  401 at Fri Aug 23 16:55:36 2019, MaxMem=  2684354560 cpu:         3.2
 (Enter /soft/gaussian/09-e.01/g09/l502.exe)
 Closed shell SCF:
 Using DIIS extrapolation, IDIIS=  1040.
 Integral symmetry usage will be decided dynamically.
 Keep R1 ints in memory in symmetry-blocked form, NReq=1052783.
 IVT=       10767 IEndB=       10767 NGot=  2684354560 MDV=  2684297208
 LenX=  2684297208 LenY=  2684295542
 Requested convergence on RMS density matrix=1.00D-08 within  64 cycles.
 Requested convergence on MAX density matrix=1.00D-06.
 Requested convergence on             energy=1.00D-06.
 No special actions if energy rises.
 FoFCou: FMM=F IPFlag=           0 FMFlag=           0 FMFlg1=           0
         NFxFlg=           0 DoJE=F BraDBF=F KetDBF=F FulRan=T
         wScrn=  0.000000 ICntrl=     600 IOpCl=  0 I1Cent=           0 NGrid=           0
         NMat0=    1 NMatS0=    595 NMatT0=    0 NMatD0=    1 NMtDS0=    0 NMtDT0=    0
 Petite list used in FoFCou.
 Integral accuracy reduced to 1.0D-05 until final iterations.

 Cycle   1  Pass 0  IDiag  1:
 E= -40.4294683599424    
 DIIS: error= 6.54D-02 at cycle   1 NSaved=   1.
 NSaved= 1 IEnMin= 1 EnMin= -40.4294683599424     IErMin= 1 ErrMin= 6.54D-02
 ErrMax= 6.54D-02  0.00D+00 EMaxC= 1.00D-01 BMatC= 7.65D-02 BMatP= 7.65D-02
 IDIUse=3 WtCom= 3.46D-01 WtEn= 6.54D-01
 Coeff-Com:  0.100D+01
 Coeff-En:   0.100D+01
 Coeff:      0.100D+01
 Gap=     0.380 Goal=   None    Shift=    0.000
 GapD=    0.380 DampG=1.000 DampE=0.500 DampFc=0.5000 IDamp=-1.
 Damping current iteration by 5.00D-01
 RMSDP=1.44D-02 MaxDP=1.44D-01              OVMax= 1.95D-01

 Cycle   2  Pass 0  IDiag  1:
 E= -40.4690955844337     Delta-E=       -0.039627224491 Rises=F Damp=T
 DIIS: error= 7.93D-03 at cycle   2 NSaved=   2.
 NSaved= 2 IEnMin= 2 EnMin= -40.4690955844337     IErMin= 2 ErrMin= 7.93D-03
 ErrMax= 7.93D-03  0.00D+00 EMaxC= 1.00D-01 BMatC= 1.19D-03 BMatP= 7.65D-02
 IDIUse=3 WtCom= 9.21D-01 WtEn= 7.93D-02
 Coeff-Com:  0.767D-01 0.923D+00
 Coeff-En:   0.122D+00 0.878D+00
 Coeff:      0.804D-01 0.920D+00
 Gap=     0.456 Goal=   None    Shift=    0.000
 RMSDP=1.38D-03 MaxDP=1.16D-02 DE=-3.96D-02 OVMax= 1.02D-01

 Cycle   3  Pass 0  IDiag  1:
 E= -40.5162350377904     Delta-E=       -0.047139453357 Rises=F Damp=F
 DIIS: error= 5.40D-04 at cycle   3 NSaved=   3.
 NSaved= 3 IEnMin= 3 EnMin= -40.5162350377904     IErMin= 3 ErrMin= 5.40D-04
 ErrMax= 5.40D-04  0.00D+00 EMaxC= 1.00D-01 BMatC= 8.66D-06 BMatP= 1.19D-03
 IDIUse=3 WtCom= 9.95D-01 WtEn= 5.40D-03
 Coeff-Com:  0.634D-02-0.463D-01 0.104D+01
 Coeff-En:   0.000D+00 0.000D+00 0.100D+01
 Coeff:      0.630D-02-0.461D-01 0.104D+01
 Gap=     0.464 Goal=   None    Shift=    0.000
 RMSDP=6.96D-05 MaxDP=7.04D-04 DE=-4.71D-02 OVMax= 7.01D-04

 Cycle   4  Pass 0  IDiag  1:
 E= -40.5162425104695     Delta-E=       -0.000007472679 Rises=F Damp=F
 DIIS: error= 4.87D-05 at cycle   4 NSaved=   4.
 NSaved= 4 IEnMin= 4 EnMin= -40.5162425104695     IErMin= 4 ErrMin= 4.87D-05
 ErrMax= 4.87D-05  0.00D+00 EMaxC= 1.00D-01 BMatC= 4.25D-08 BMatP= 8.66D-06
 IDIUse=1 WtCom= 1.00D+00 WtEn= 0.00D+00
 Coeff-Com:  0.889D-03-0.466D-03 0.249D-01 0.975D+00
 Coeff:      0.889D-03-0.466D-03 0.249D-01 0.975D+00
 Gap=     0.464 Goal=   None    Shift=    0.000
 RMSDP=5.75D-06 MaxDP=3.94D-05 DE=-7.47D-06 OVMax= 7.37D-05

 Initial convergence to 1.0D-05 achieved.  Increase integral accuracy.
 Cycle   5  Pass 1  IDiag  1:
 E= -40.5162379846271     Delta-E=        0.000004525842 Rises=F Damp=F
 DIIS: error= 1.43D-06 at cycle   1 NSaved=   1.
 NSaved= 1 IEnMin= 1 EnMin= -40.5162379846271     IErMin= 1 ErrMin= 1.43D-06
 ErrMax= 1.43D-06  0.00D+00 EMaxC= 1.00D-01 BMatC= 6.96D-11 BMatP= 6.96D-11
 IDIUse=1 WtCom= 1.00D+00 WtEn= 0.00D+00
 Coeff-Com:  0.100D+01
 Coeff:      0.100D+01
 Gap=     0.464 Goal=   None    Shift=    0.000
 RMSDP=5.75D-06 MaxDP=3.94D-05 DE= 4.53D-06 OVMax= 5.93D-06

 Cycle   6  Pass 1  IDiag  1:
 E= -40.5162379847476     Delta-E=       -0.000000000120 Rises=F Damp=F
 DIIS: error= 9.53D-07 at cycle   2 NSaved=   2.
 NSaved= 2 IEnMin= 2 EnMin= -40.5162379847476     IErMin= 2 ErrMin= 9.53D-07
 ErrMax= 9.53D-07  0.00D+00 EMaxC= 1.00D-01 BMatC= 1.84D-11 BMatP= 6.96D-11
 IDIUse=1 WtCom= 1.00D+00 WtEn= 0.00D+00
 Coeff-Com:  0.211D+00 0.789D+00
 Coeff:      0.211D+00 0.789D+00
 Gap=     0.464 Goal=   None    Shift=    0.000
 RMSDP=1.37D-07 MaxDP=1.72D-06 DE=-1.20D-10 OVMax= 2.04D-06

 Cycle   7  Pass 1  IDiag  1:
 E= -40.5162379847569     Delta-E=       -0.000000000009 Rises=F Damp=F
 DIIS: error= 6.62D-07 at cycle   3 NSaved=   3.
 NSaved= 3 IEnMin= 3 EnMin= -40.5162379847569     IErMin= 3 ErrMin= 6.62D-07
 ErrMax= 6.62D-07  0.00D+00 EMaxC= 1.00D-01 BMatC= 8.26D-12 BMatP= 1.84D-11
 IDIUse=1 WtCom= 1.00D+00 WtEn= 0.00D+00
 Coeff-Com: -0.338D-01 0.411D+00 0.623D+00
 Coeff:     -0.338D-01 0.411D+00 0.623D+00
 Gap=     0.464 Goal=   None    Shift=    0.000
 RMSDP=7.38D-08 MaxDP=7.29D-07 DE=-9.31D-12 OVMax= 9.55D-07

 Cycle   8  Pass 1  IDiag  1:
 E= -40.5162379847658     Delta-E=       -0.000000000009 Rises=F Damp=F
 DIIS: error= 4.70D-09 at cycle   4 NSaved=   4.
 NSaved= 4 IEnMin= 4 EnMin= -40.5162379847658     IErMin= 4 ErrMin= 4.70D-09
 ErrMax= 4.70D-09  0.00D+00 EMaxC= 1.00D-01 BMatC= 3.17D-16 BMatP= 8.26D-12
 IDIUse=1 WtCom= 1.00D+00 WtEn= 0.00D+00
 Coeff-Com:  0.439D-03-0.141D-01-0.158D-01 0.103D+01
 Coeff:      0.439D-03-0.141D-01-0.158D-01 0.103D+01
 Gap=     0.464 Goal=   None    Shift=    0.000
 RMSDP=8.95D-10 MaxDP=5.75D-09 DE=-8.92D-12 OVMax= 8.82D-09

 SCF Done:  E(RB3LYP) =  -40.5162379848     A.U. after    8 cycles
            NFock=  8  Conv=0.90D-09     -V/T= 2.0105
 KE= 4.009581450483D+01 PE=-1.198343257975D+02 EE= 2.582738827861D+01
 Leave Link  502 at Fri Aug 23 16:55:37 2019, MaxMem=  2684354560 cpu:         4.1
 (Enter /soft/gaussian/09-e.01/g09/l508.exe)
 QCSCF skips out because SCF is already converged.
 Leave Link  508 at Fri Aug 23 16:55:37 2019, MaxMem=  2684354560 cpu:         0.0
 (Enter /soft/gaussian/09-e.01/g09/l601.exe)
 Copying SCF densities to generalized density rwf, IOpCl= 0 IROHF=0.

 **********************************************************************

            Population analysis using the SCF density.

 **********************************************************************

 Orbital symmetries:
       Occupied  (A1) (A1) (T2) (T2) (T2)
       Virtual   (A1) (T2) (T2) (T2) (T2) (T2) (T2) (T2) (T2) (T2)
                 (A1) (E) (E) (A1) (T1) (T1) (T1) (T2) (T2) (T2)
                 (T2) (T2) (T2) (E) (E) (A1) (T2) (T2) (T2)
 The electronic state is 1-A1.
 Alpha  occ. eigenvalues --  -10.17202  -0.69232  -0.38954  -0.38954  -0.38954
 Alpha virt. eigenvalues --    0.07416   0.14434   0.14434   0.14434   0.41337
 Alpha virt. eigenvalues --    0.41337   0.41337   0.65309   0.65309   0.65309
 Alpha virt. eigenvalues --    0.68456   0.90150   0.90150   1.04227   1.41964
 Alpha virt. eigenvalues --    1.41964   1.41964   1.61642   1.61642   1.61642
 Alpha virt. eigenvalues --    1.92654   1.92654   1.92654   2.24359   2.24359
 Alpha virt. eigenvalues --    2.40953   2.43955   2.43955   2.43955
          Condensed to atoms (all electrons):
               1          2          3          4          5
     1  C    4.490220   0.407394   0.407394   0.407394   0.407394
     2  H    0.407394   0.632486  -0.023276  -0.023276  -0.023276
     3  H    0.407394  -0.023276   0.632486  -0.023276  -0.023276
     4  H    0.407394  -0.023276  -0.023276   0.632486  -0.023276
     5  H    0.407394  -0.023276  -0.023276  -0.023276   0.632486
 Mulliken charges:
               1
     1  C   -0.119796
     2  H    0.029949
     3  H    0.029949
     4  H    0.029949
     5  H    0.029949
 Sum of Mulliken charges =  -0.00000
 Mulliken charges with hydrogens summed into heavy atoms:
               1
     1  C   -0.000000
 Electronic spatial extent (au):  <R**2>=             35.6076
 Charge=             -0.0000 electrons
 Dipole moment (field-independent basis, Debye):
    X=              0.0000    Y=             -0.0000    Z=              0.0000  Tot=              0.0000
 Quadrupole moment (field-independent basis, Debye-Ang):
   XX=             -8.3095   YY=             -8.3095   ZZ=             -8.3095
   XY=             -0.0000   XZ=             -0.0000   YZ=             -0.0000
 Traceless Quadrupole moment (field-independent basis, Debye-Ang):
   XX=             -0.0000   YY=              0.0000   ZZ=              0.0000
   XY=             -0.0000   XZ=             -0.0000   YZ=             -0.0000
 Octapole moment (field-independent basis, Debye-Ang**2):
  XXX=              0.0000  YYY=              0.0000  ZZZ=              0.0000  XYY=              0.0000
  XXY=             -0.0000  XXZ=              0.0000  XZZ=              0.0000  YZZ=              0.0000
  YYZ=              0.0000  XYZ=              0.5709
 Hexadecapole moment (field-independent basis, Debye-Ang**3):
 XXXX=            -16.2047 YYYY=            -16.2047 ZZZZ=            -16.2047 XXXY=             -0.0000
 XXXZ=              0.0000 YYYX=             -0.0000 YYYZ=             -0.0000 ZZZX=              0.0000
 ZZZY=             -0.0000 XXYY=             -4.9518 XXZZ=             -4.9518 YYZZ=             -4.9518
 XXYZ=             -0.0000 YYXZ=              0.0000 ZZXY=              0.0000
 N-N= 1.339488502930D+01 E-N=-1.198343258498D+02  KE= 4.009581450483D+01
 Symmetry A    KE= 3.441404849245D+01
 Symmetry B1   KE= 1.893922004125D+00
 Symmetry B2   KE= 1.893922004125D+00
 Symmetry B3   KE= 1.893922004125D+00
 No NMR shielding tensors so no spin-rotation constants.
 Leave Link  601 at Fri Aug 23 16:55:38 2019, MaxMem=  2684354560 cpu:         2.3
 (Enter /soft/gaussian/09-e.01/g09/l701.exe)
 Compute integral first derivatives.
 ... and contract with generalized density number  0.
 Leave Link  701 at Fri Aug 23 16:55:38 2019, MaxMem=  2684354560 cpu:         1.9
 (Enter /soft/gaussian/09-e.01/g09/l702.exe)
 L702 exits ... SP integral derivatives will be done elsewhere.
 Leave Link  702 at Fri Aug 23 16:55:38 2019, MaxMem=  2684354560 cpu:         0.3
 (Enter /soft/gaussian/09-e.01/g09/l703.exe)
 Compute integral first derivatives, UseDBF=F ICtDFT=           0.
 Integral derivatives from FoFJK, PRISM(SPDF).
 Calling FoFJK, ICntrl=      2127 FMM=F ISym2X=1 I1Cent= 0 IOpClX= 0 NMat=1 NMatS=1 NMatT=0.
 FoFJK:  IHMeth= 1 ICntrl=    2127 DoSepK=F KAlg= 0 I1Cent=   0 FoldK=F
 IRaf=         0 NMat=   1 IRICut=       1 DoRegI=T DoRafI=F ISym2E= 1.
 FoFCou: FMM=F IPFlag=           0 FMFlag=      100000 FMFlg1=         800
         NFxFlg=           0 DoJE=F BraDBF=F KetDBF=F FulRan=T
         wScrn=  0.000000 ICntrl=    2127 IOpCl=  0 I1Cent=           0 NGrid=           0
         NMat0=    1 NMatS0=      1 NMatT0=    0 NMatD0=    1 NMtDS0=    0 NMtDT0=    0
 Petite list used in FoFCou.
 Leave Link  703 at Fri Aug 23 16:55:39 2019, MaxMem=  2684354560 cpu:         2.7
 (Enter /soft/gaussian/09-e.01/g09/l716.exe)
 Dipole        = 0.00000000D+00-2.22044605D-16 0.00000000D+00
 ***** Axes restored to original set *****
 -------------------------------------------------------------------
 Center     Atomic                   Forces (Hartrees/Bohr)
 Number     Number              X              Y              Z
 -------------------------------------------------------------------
      1        6           0.000000000   -0.000000000    0.000000000
      2        1           0.000000000   -0.000000000    0.004457621
      3        1           0.004202686    0.000000000   -0.001485874
      4        1          -0.002101343   -0.003639632   -0.001485874
      5        1          -0.002101343    0.003639632   -0.001485874
 -------------------------------------------------------------------
 Cartesian Forces:  Max     0.004457621 RMS     0.002301906
 -----------------------------------------------------------------------------------------------
                       Internal Coordinate Forces (Hartree/Bohr or radian)
  Cent   Atom   N1       Length/X         N2         Alpha/Y        N3         Beta/Z          J
 -----------------------------------------------------------------------------------------------
      1  C 
      2  H        1   0.004458(     1)
      3  H        1   0.004458(     2)      2   0.000000(     5)
      4  H        1   0.004458(     3)      2  -0.000000(     6)      3   0.000000(     8)     0
      5  H        1   0.004458(     4)      2   0.000000(     7)      3   0.000000(     9)     0
 -----------------------------------------------------------------------------------------------
 Internal  Forces:  Max     0.004457621 RMS     0.002971747
 Force constants in Cartesian coordinates: 
                1             2             3             4             5 
      1  0.662140D+00
      2  0.000000D+00  0.662140D+00
      3  0.000000D+00  0.000000D+00  0.662140D+00
      4 -0.761299D-01  0.000000D+00  0.000000D+00  0.566618D-01
      5  0.000000D+00 -0.761299D-01  0.000000D+00  0.000000D+00  0.566618D-01
      6  0.000000D+00  0.000000D+00 -0.344345D+00  0.000000D+00  0.000000D+00
      7 -0.314543D+00  0.000000D+00  0.842919D-01  0.125431D-01  0.000000D+00
      8  0.000000D+00 -0.761299D-01  0.000000D+00  0.000000D+00  0.435659D-03
      9  0.842919D-01  0.000000D+00 -0.105932D+00  0.354772D-01  0.000000D+00
     10 -0.135733D+00 -0.103236D+00 -0.421459D-01  0.346252D-02  0.524267D-02
     11 -0.103236D+00 -0.254940D+00 -0.729989D-01  0.524267D-02  0.951624D-02
     12 -0.421459D-01 -0.729989D-01 -0.105932D+00 -0.177386D-01 -0.307242D-01
     13 -0.135733D+00  0.103236D+00 -0.421459D-01  0.346252D-02 -0.524267D-02
     14  0.103236D+00 -0.254940D+00  0.729989D-01 -0.524267D-02  0.951624D-02
     15 -0.421459D-01  0.729989D-01 -0.105932D+00 -0.177386D-01  0.307242D-01
                6             7             8             9            10 
      6  0.344345D+00
      7  0.000000D+00  0.312380D+00
      8  0.000000D+00  0.000000D+00  0.566618D-01
      9  0.000000D+00 -0.904101D-01  0.000000D+00  0.886266D-01
     10  0.000000D+00 -0.518999D-02 -0.272195D-01 -0.146795D-01  0.120591D+00
     11  0.000000D+00  0.174756D-02  0.951624D-02  0.494284D-02  0.110729D+00
     12  0.000000D+00  0.305912D-02  0.151842D-01  0.865250D-02  0.452051D-01
     13  0.000000D+00 -0.518999D-02  0.272195D-01 -0.146795D-01  0.168693D-01
     14  0.000000D+00 -0.174756D-02  0.951624D-02 -0.494284D-02  0.144835D-01
     15  0.000000D+00  0.305912D-02 -0.151842D-01  0.865250D-02  0.116204D-01
               11            12            13            14            15 
     11  0.248451D+00
     12  0.782975D-01  0.886266D-01
     13 -0.144835D-01  0.116204D-01  0.120591D+00
     14 -0.125431D-01  0.102414D-01 -0.110729D+00  0.248451D+00
     15 -0.102414D-01  0.865250D-02  0.452051D-01 -0.782975D-01  0.886266D-01
 Force constants in internal coordinates: 
                1             2             3             4             5 
      1  0.344345D+00
      2  0.000000D+00  0.344345D+00
      3  0.000000D+00  0.000000D+00  0.344345D+00
      4  0.000000D+00  0.000000D+00  0.000000D+00  0.344345D+00
      5  0.000000D+00  0.000000D+00  0.000000D+00  0.000000D+00  0.241860D+00
      6  0.000000D+00  0.000000D+00  0.000000D+00  0.000000D+00  0.415497D-01
      7  0.000000D+00  0.000000D+00  0.000000D+00  0.000000D+00  0.415497D-01
      8  0.000000D+00  0.000000D+00  0.000000D+00  0.000000D+00 -0.648136D-01
      9  0.000000D+00  0.000000D+00  0.000000D+00  0.000000D+00  0.648136D-01
                6             7             8             9 
      6  0.241860D+00
      7  0.415497D-01  0.241860D+00
      8  0.000000D+00  0.648136D-01  0.214986D+00
      9 -0.648136D-01  0.000000D+00 -0.107493D+00  0.214986D+00
 Leave Link  716 at Fri Aug 23 16:55:39 2019, MaxMem=  2684354560 cpu:         0.5
 (Enter /soft/gaussian/09-e.01/g09/l103.exe)

 GradGradGradGradGradGradGradGradGradGradGradGradGradGradGradGradGradGrad
 Berny optimization.
 Search for a local minimum.
 Step number   1 out of a maximum of   20
 All quantities printed in internal units (Hartrees-Bohrs-Radians)
 Second derivative matrix not updated -- first step.
 The second derivative matrix:
                          R1        R2        A2        R3        A3
           R1           0.34435
           R2          -0.00000   0.34435
           A2          -0.00000   0.00000   0.24186
           R3          -0.00000   0.00000   0.00000   0.34435
           A3          -0.00000  -0.00000   0.04155   0.00000   0.24186
           D3          -0.00000   0.00000  -0.06481  -0.00000   0.00000
           R4          -0.00000  -0.00000  -0.00000   0.00000   0.00000
           A4           0.00000   0.00000   0.04155  -0.00000   0.04155
           D4          -0.00000   0.00000   0.06481   0.00000  -0.06481
                          D3        R4        A4        D4
           D3           0.21499
           R4           0.00000   0.34435
           A4           0.06481  -0.00000   0.24186
           D4          -0.10749   0.00000   0.00000   0.21499
 ITU=  0
     Eigenvalues ---    0.07419   0.13359   0.23362   0.32496   0.34435
     Eigenvalues ---    0.34435   0.34435   0.34435   0.38920
 RFO step:  Lambda=-2.30664881D-04 EMin= 7.41861613D-02
 Linear search not attempted -- first point.
 Variable       Old X    -DE/DX   Delta X   Delta X   Delta X     New X
                                 (Linear)    (Quad)   (Total)
    R1        2.06603   0.00446   0.00000   0.01294   0.01294   2.07897
    R2        2.06603   0.00446   0.00000   0.01294   0.01294   2.07897
    A2        1.91063   0.00000   0.00000   0.00000   0.00000   1.91063
    R3        2.06603   0.00446   0.00000   0.01294   0.01294   2.07897
    A3        1.91063  -0.00000   0.00000  -0.00000  -0.00000   1.91063
    D3        2.09440   0.00000   0.00000   0.00000   0.00000   2.09440
    R4        2.06603   0.00446   0.00000   0.01294   0.01294   2.07897
    A4        1.91063   0.00000   0.00000   0.00000   0.00000   1.91063
    D4        4.18879   0.00000   0.00000   0.00000   0.00000   4.18879
         Item               Value     Threshold  Converged?
 Maximum Force            0.004458     0.000450     NO 
 RMS     Force            0.002972     0.000300     NO 
 Maximum Displacement     0.012937     0.001800     NO 
 RMS     Displacement     0.008624     0.001200     NO 
 Predicted change in Energy=-1.154097D-04
 Lowest energy point so far.  Saving SCF results.
 GradGradGradGradGradGradGradGradGradGradGradGradGradGradGradGradGradGrad

 Leave Link  103 at Fri Aug 23 16:55:39 2019, MaxMem=  2684354560 cpu:         1.5
 (Enter /soft/gaussian/09-e.01/g09/l202.exe)
 ---------------------------------------------------------------------------------------------------
                            Z-MATRIX (ANGSTROMS AND DEGREES)
   CD    Cent   Atom    N1       Length/X        N2       Alpha/Y        N3        Beta/Z          J
 ---------------------------------------------------------------------------------------------------
      1      1  C 
      2      2  H        1   1.100142(     1)
      3      3  H        1   1.100142(     2)      2  109.471(     5)
      4      4  H        1   1.100142(     3)      2  109.471(     6)      3  120.000(     8)      0
      5      5  H        1   1.100142(     4)      2  109.471(     7)      3  240.000(     9)      0
 ---------------------------------------------------------------------------------------------------
                         Z-Matrix orientation:                         
 ---------------------------------------------------------------------
 Center     Atomic      Atomic             Coordinates (Angstroms)
 Number     Number       Type             X           Y           Z
 ---------------------------------------------------------------------
      1          6           0        0.000000    0.000000    0.000000
      2          1           0        0.000000    0.000000    1.100142
      3          1           0        1.037224    0.000000   -0.366714
      4          1           0       -0.518612   -0.898262   -0.366714
      5          1           0       -0.518612    0.898262   -0.366714
 ---------------------------------------------------------------------
                    Distance matrix (angstroms):
                    1          2          3          4          5
     1  C    0.000000
     2  H    1.100142   0.000000
     3  H    1.100142   1.796524   0.000000
     4  H    1.100142   1.796524   1.796524   0.000000
     5  H    1.100142   1.796524   1.796524   1.796524   0.000000
 Stoichiometry    CH4
 Framework group  TD[O(C),4C3(H)]
 Deg. of freedom     1
 Full point group                 TD      NOp  24
 RotChk:  IX=0 Diff= 2.53D-14
 Largest Abelian subgroup         D2      NOp   4
 Largest concise Abelian subgroup D2      NOp   4
                         Standard orientation:                         
 ---------------------------------------------------------------------
 Center     Atomic      Atomic             Coordinates (Angstroms)
 Number     Number       Type             X           Y           Z
 ---------------------------------------------------------------------
      1          6           0        0.000000    0.000000    0.000000
      2          1           0        0.635167    0.635167    0.635167
      3          1           0       -0.635167   -0.635167    0.635167
      4          1           0       -0.635167    0.635167   -0.635167
      5          1           0        0.635167   -0.635167   -0.635167
 ---------------------------------------------------------------------
 Rotational constants (GHZ):    155.3695991    155.3695991    155.3695991
 Leave Link  202 at Fri Aug 23 16:55:40 2019, MaxMem=  2684354560 cpu:         0.2
 (Enter /soft/gaussian/09-e.01/g09/l301.exe)
 Standard basis: CC-pVDZ (5D, 7F)
 Ernie: Thresh=  0.10000D-02 Tol=  0.10000D-05 Strict=F.
 Ernie:  2 primitive shells out of 42 were deleted.
 There are    11 symmetry adapted cartesian basis functions of A   symmetry.
 There are     8 symmetry adapted cartesian basis functions of B1  symmetry.
 There are     8 symmetry adapted cartesian basis functions of B2  symmetry.
 There are     8 symmetry adapted cartesian basis functions of B3  symmetry.
 There are    10 symmetry adapted basis functions of A   symmetry.
 There are     8 symmetry adapted basis functions of B1  symmetry.
 There are     8 symmetry adapted basis functions of B2  symmetry.
 There are     8 symmetry adapted basis functions of B3  symmetry.
    34 basis functions,    61 primitive gaussians,    35 cartesian basis functions
     5 alpha electrons        5 beta electrons
       nuclear repulsion energy        13.3115341849 Hartrees.
 IExCor=  402 DFT=T Ex+Corr=B3LYP ExCW=0 ScaHFX=  0.200000
 ScaDFX=  0.800000  0.720000  1.000000  0.810000 ScalE2=  1.000000  1.000000
 IRadAn=      5 IRanWt=     -1 IRanGd=            0 ICorTp=0 IEmpDi=  4
 NAtoms=    5 NActive=    5 NUniq=    2 SFac= 4.00D+00 NAtFMM=   60 NAOKFM=F Big=F
 Integral buffers will be    131072 words long.
 Raffenetti 2 integral format.
 Two-electron integral symmetry is turned on.
 Leave Link  301 at Fri Aug 23 16:55:40 2019, MaxMem=  2684354560 cpu:         0.6
 (Enter /soft/gaussian/09-e.01/g09/l302.exe)
 NPDir=0 NMtPBC=     1 NCelOv=     1 NCel=       1 NClECP=     1 NCelD=      1
         NCelK=      1 NCelE2=     1 NClLst=     1 CellRange=     0.0.
 One-electron integrals computed using PRISM.
 One-electron integral symmetry used in STVInt
 NBasis=    34 RedAO= T EigKep=  3.18D-02  NBF=    10     8     8     8
 NBsUse=    34 1.00D-06 EigRej= -1.00D+00 NBFU=    10     8     8     8
 Precomputing XC quadrature grid using
 IXCGrd= 4 IRadAn=           5 IRanWt=          -1 IRanGd=           0 AccXCQ= 0.00D+00.
 Generated NRdTot=       0 NPtTot=           0 NUsed=           0 NTot=          32
 NSgBfM=    35    35    35    35    35 MxSgAt=     5 MxSgA2=     5.
 Leave Link  302 at Fri Aug 23 16:55:40 2019, MaxMem=  2684354560 cpu:         1.8
 (Enter /soft/gaussian/09-e.01/g09/l303.exe)
 DipDrv:  MaxL=1.
 Leave Link  303 at Fri Aug 23 16:55:40 2019, MaxMem=  2684354560 cpu:         0.2
 (Enter /soft/gaussian/09-e.01/g09/l401.exe)
 Initial guess from the checkpoint file:  "/blues/gpfs/home/elliott/Packages/PACC/moldriver/rcdriver/rundir/SPC/CH4/VNWKTOKETHGBQD/0/1/UHFFFAOYSA-N/ezvN4wR/RUN/OPTI/A00/Gau-53061.chk"
 B after Tr=     0.000000    0.000000    0.000000
         Rot=    1.000000   -0.000000    0.000000   -0.000000 Ang=   0.00 deg.
 Guess basis will be translated and rotated to current coordinates.
 JPrj=2 DoOrth=T DoCkMO=T.
 Initial guess orbital symmetries:
       Occupied  (A1) (A1) (T2) (T2) (T2)
       Virtual   (A1) (E) (E) (A1) (A1) (E) (E) (A1) (T2) (T2)
                 (T2) (T1) (T2) (T2) (T2) (T2) (T2) (T2) (T1) (T2)
                 (T2) (T2) (T2) (T2) (T2) (T1) (T2) (T2) (T2)
 The electronic state of the initial guess is 1-A1.
 Leave Link  401 at Fri Aug 23 16:55:40 2019, MaxMem=  2684354560 cpu:         0.8
 (Enter /soft/gaussian/09-e.01/g09/l502.exe)
 Closed shell SCF:
 Using DIIS extrapolation, IDIIS=  1040.
 Integral symmetry usage will be decided dynamically.
 Keep R1 ints in memory in symmetry-blocked form, NReq=1052783.
 IVT=       10767 IEndB=       10767 NGot=  2684354560 MDV=  2684297208
 LenX=  2684297208 LenY=  2684295542
 Requested convergence on RMS density matrix=1.00D-08 within  64 cycles.
 Requested convergence on MAX density matrix=1.00D-06.
 Requested convergence on             energy=1.00D-06.
 No special actions if energy rises.
 FoFCou: FMM=F IPFlag=           0 FMFlag=           0 FMFlg1=           0
         NFxFlg=           0 DoJE=F BraDBF=F KetDBF=F FulRan=T
         wScrn=  0.000000 ICntrl=     600 IOpCl=  0 I1Cent=           0 NGrid=           0
         NMat0=    1 NMatS0=    595 NMatT0=    0 NMatD0=    1 NMtDS0=    0 NMtDT0=    0
 Petite list used in FoFCou.

 Cycle   1  Pass 1  IDiag  1:
 E= -40.5163252595604    
 DIIS: error= 9.17D-04 at cycle   1 NSaved=   1.
 NSaved= 1 IEnMin= 1 EnMin= -40.5163252595604     IErMin= 1 ErrMin= 9.17D-04
 ErrMax= 9.17D-04  0.00D+00 EMaxC= 1.00D-01 BMatC= 1.89D-05 BMatP= 1.89D-05
 IDIUse=3 WtCom= 9.91D-01 WtEn= 9.17D-03
 Coeff-Com:  0.100D+01
 Coeff-En:   0.100D+01
 Coeff:      0.100D+01
 Gap=     0.794 Goal=   None    Shift=    0.000
 RMSDP=2.00D-04 MaxDP=2.01D-03              OVMax= 1.96D-03

 Cycle   2  Pass 1  IDiag  1:
 E= -40.5163421913560     Delta-E=       -0.000016931796 Rises=F Damp=F
 DIIS: error= 5.62D-04 at cycle   2 NSaved=   2.
 NSaved= 2 IEnMin= 2 EnMin= -40.5163421913560     IErMin= 2 ErrMin= 5.62D-04
 ErrMax= 5.62D-04  0.00D+00 EMaxC= 1.00D-01 BMatC= 5.97D-06 BMatP= 1.89D-05
 IDIUse=3 WtCom= 9.94D-01 WtEn= 5.62D-03
 Coeff-Com:  0.303D+00 0.697D+00
 Coeff-En:   0.000D+00 0.100D+01
 Coeff:      0.301D+00 0.699D+00
 Gap=     0.462 Goal=   None    Shift=    0.000
 RMSDP=8.58D-05 MaxDP=8.92D-04 DE=-1.69D-05 OVMax= 1.17D-03

 Cycle   3  Pass 1  IDiag  1:
 E= -40.5163469988222     Delta-E=       -0.000004807466 Rises=F Damp=F
 DIIS: error= 3.00D-04 at cycle   3 NSaved=   3.
 NSaved= 3 IEnMin= 3 EnMin= -40.5163469988222     IErMin= 3 ErrMin= 3.00D-04
 ErrMax= 3.00D-04  0.00D+00 EMaxC= 1.00D-01 BMatC= 1.71D-06 BMatP= 5.97D-06
 IDIUse=3 WtCom= 9.97D-01 WtEn= 3.00D-03
 Coeff-Com:  0.246D-02 0.348D+00 0.649D+00
 Coeff-En:   0.000D+00 0.205D+00 0.795D+00
 Coeff:      0.245D-02 0.348D+00 0.650D+00
 Gap=     0.461 Goal=   None    Shift=    0.000
 RMSDP=2.76D-05 MaxDP=3.33D-04 DE=-4.81D-06 OVMax= 3.98D-04

 Cycle   4  Pass 1  IDiag  1:
 E= -40.5163487797224     Delta-E=       -0.000001780900 Rises=F Damp=F
 DIIS: error= 4.97D-06 at cycle   4 NSaved=   4.
 NSaved= 4 IEnMin= 4 EnMin= -40.5163487797224     IErMin= 4 ErrMin= 4.97D-06
 ErrMax= 4.97D-06  0.00D+00 EMaxC= 1.00D-01 BMatC= 3.71D-10 BMatP= 1.71D-06
 IDIUse=1 WtCom= 1.00D+00 WtEn= 0.00D+00
 Coeff-Com: -0.216D-02 0.107D-01 0.106D-01 0.981D+00
 Coeff:     -0.216D-02 0.107D-01 0.106D-01 0.981D+00
 Gap=     0.461 Goal=   None    Shift=    0.000
 RMSDP=6.50D-07 MaxDP=4.90D-06 DE=-1.78D-06 OVMax= 8.74D-06

 Cycle   5  Pass 1  IDiag  1:
 E= -40.5163487802463     Delta-E=       -0.000000000524 Rises=F Damp=F
 DIIS: error= 3.45D-07 at cycle   5 NSaved=   5.
 NSaved= 5 IEnMin= 5 EnMin= -40.5163487802463     IErMin= 5 ErrMin= 3.45D-07
 ErrMax= 3.45D-07  0.00D+00 EMaxC= 1.00D-01 BMatC= 1.49D-12 BMatP= 3.71D-10
 IDIUse=1 WtCom= 1.00D+00 WtEn= 0.00D+00
 Coeff-Com:  0.107D-03-0.123D-02-0.830D-03-0.532D-01 0.106D+01
 Coeff:      0.107D-03-0.123D-02-0.830D-03-0.532D-01 0.106D+01
 Gap=     0.461 Goal=   None    Shift=    0.000
 RMSDP=2.57D-08 MaxDP=4.39D-07 DE=-5.24D-10 OVMax= 5.68D-07

 Cycle   6  Pass 1  IDiag  1:
 E= -40.5163487802480     Delta-E=       -0.000000000002 Rises=F Damp=F
 DIIS: error= 5.48D-09 at cycle   6 NSaved=   6.
 NSaved= 6 IEnMin= 6 EnMin= -40.5163487802480     IErMin= 6 ErrMin= 5.48D-09
 ErrMax= 5.48D-09  0.00D+00 EMaxC= 1.00D-01 BMatC= 4.16D-16 BMatP= 1.49D-12
 IDIUse=1 WtCom= 1.00D+00 WtEn= 0.00D+00
 Coeff-Com: -0.304D-05 0.277D-04 0.124D-04 0.181D-02-0.395D-01 0.104D+01
 Coeff:     -0.304D-05 0.277D-04 0.124D-04 0.181D-02-0.395D-01 0.104D+01
 Gap=     0.461 Goal=   None    Shift=    0.000
 RMSDP=7.17D-10 MaxDP=6.24D-09 DE=-1.65D-12 OVMax= 9.57D-09

 SCF Done:  E(RB3LYP) =  -40.5163487802     A.U. after    6 cycles
            NFock=  6  Conv=0.72D-09     -V/T= 2.0114
 KE= 4.006078081762D+01 PE=-1.196436701618D+02 EE= 2.575500637903D+01
 Leave Link  502 at Fri Aug 23 16:55:40 2019, MaxMem=  2684354560 cpu:         2.4
 (Enter /soft/gaussian/09-e.01/g09/l508.exe)
 QCSCF skips out because SCF is already converged.
 Leave Link  508 at Fri Aug 23 16:55:40 2019, MaxMem=  2684354560 cpu:         0.0
 (Enter /soft/gaussian/09-e.01/g09/l701.exe)
 Compute integral first derivatives.
 ... and contract with generalized density number  0.
 Leave Link  701 at Fri Aug 23 16:55:40 2019, MaxMem=  2684354560 cpu:         1.7
 (Enter /soft/gaussian/09-e.01/g09/l702.exe)
 L702 exits ... SP integral derivatives will be done elsewhere.
 Leave Link  702 at Fri Aug 23 16:55:40 2019, MaxMem=  2684354560 cpu:         0.2
 (Enter /soft/gaussian/09-e.01/g09/l703.exe)
 Compute integral first derivatives, UseDBF=F ICtDFT=           0.
 Integral derivatives from FoFJK, PRISM(SPDF).
 Calling FoFJK, ICntrl=      2127 FMM=F ISym2X=1 I1Cent= 0 IOpClX= 0 NMat=1 NMatS=1 NMatT=0.
 FoFJK:  IHMeth= 1 ICntrl=    2127 DoSepK=F KAlg= 0 I1Cent=   0 FoldK=F
 IRaf=         0 NMat=   1 IRICut=       1 DoRegI=T DoRafI=F ISym2E= 1.
 FoFCou: FMM=F IPFlag=           0 FMFlag=      100000 FMFlg1=         800
         NFxFlg=           0 DoJE=F BraDBF=F KetDBF=F FulRan=T
         wScrn=  0.000000 ICntrl=    2127 IOpCl=  0 I1Cent=           0 NGrid=           0
         NMat0=    1 NMatS0=      1 NMatT0=    0 NMatD0=    1 NMtDS0=    0 NMtDT0=    0
 Petite list used in FoFCou.
 Leave Link  703 at Fri Aug 23 16:55:41 2019, MaxMem=  2684354560 cpu:         1.5
 (Enter /soft/gaussian/09-e.01/g09/l716.exe)
 Dipole        = 6.66133815D-16 4.44089210D-16 4.44089210D-16
 ***** Axes restored to original set *****
 -------------------------------------------------------------------
 Center     Atomic                   Forces (Hartrees/Bohr)
 Number     Number              X              Y              Z
 -------------------------------------------------------------------
      1        6          -0.000000000   -0.000000000   -0.000000000
      2        1          -0.000000000    0.000000000   -0.000145877
      3        1          -0.000137534    0.000000000    0.000048626
      4        1           0.000068767    0.000119108    0.000048626
      5        1           0.000068767   -0.000119108    0.000048626
 -------------------------------------------------------------------
 Cartesian Forces:  Max     0.000145877 RMS     0.000075330
 -----------------------------------------------------------------------------------------------
                       Internal Coordinate Forces (Hartree/Bohr or radian)
  Cent   Atom   N1       Length/X         N2         Alpha/Y        N3         Beta/Z          J
 -----------------------------------------------------------------------------------------------
      1  C 
      2  H        1  -0.000146(     1)
      3  H        1  -0.000146(     2)      2   0.000000(     5)
      4  H        1  -0.000146(     3)      2   0.000000(     6)      3   0.000000(     8)     0
      5  H        1  -0.000146(     4)      2   0.000000(     7)      3   0.000000(     9)     0
 -----------------------------------------------------------------------------------------------
 Internal  Forces:  Max     0.000145877 RMS     0.000097251
 Leave Link  716 at Fri Aug 23 16:55:41 2019, MaxMem=  2684354560 cpu:         0.3
 (Enter /soft/gaussian/09-e.01/g09/l103.exe)

 GradGradGradGradGradGradGradGradGradGradGradGradGradGradGradGradGradGrad
 Berny optimization.
 Search for a local minimum.
 Step number   2 out of a maximum of   20
 All quantities printed in internal units (Hartrees-Bohrs-Radians)
 Update second derivatives using D2CorN and points    1    2
 DE= -1.11D-04 DEPred=-1.15D-04 R= 9.60D-01
 TightC=F SS=  1.41D+00  RLast= 2.59D-02 DXNew= 5.0454D-01 7.7619D-02
 Trust test= 9.60D-01 RLast= 2.59D-02 DXMaxT set to 3.00D-01
 The second derivative matrix:
                          R1        R2        A2        R3        A3
           R1           0.34722
           R2           0.00288   0.34722
           A2          -0.00000  -0.00000   0.24186
           R3           0.00288   0.00288  -0.00000   0.34722
           A3          -0.00000  -0.00000   0.04155  -0.00000   0.24186
           D3          -0.00000  -0.00000  -0.06481  -0.00000   0.00000
           R4           0.00288   0.00288  -0.00000   0.00288  -0.00000
           A4          -0.00000  -0.00000   0.04155  -0.00000   0.04155
           D4          -0.00000  -0.00000   0.06481  -0.00000  -0.06481
                          D3        R4        A4        D4
           D3           0.21499
           R4          -0.00000   0.34722
           A4           0.06481  -0.00000   0.24186
           D4          -0.10749  -0.00000   0.00000   0.21499
 ITU=  1  0
     Eigenvalues ---    0.07419   0.13359   0.23362   0.32496   0.34435
     Eigenvalues ---    0.34435   0.34435   0.35585   0.38920
 RFO step:  Lambda= 0.00000000D+00 EMin= 7.41861613D-02
 Quartic linear search produced a step of -0.03229.
 Variable       Old X    -DE/DX   Delta X   Delta X   Delta X     New X
                                 (Linear)    (Quad)   (Total)
    R1        2.07897  -0.00015  -0.00042   0.00000  -0.00042   2.07855
    R2        2.07897  -0.00015  -0.00042   0.00000  -0.00042   2.07855
    A2        1.91063   0.00000  -0.00000   0.00000   0.00000   1.91063
    R3        2.07897  -0.00015  -0.00042  -0.00000  -0.00042   2.07855
    A3        1.91063   0.00000   0.00000   0.00000   0.00000   1.91063
    D3        2.09440   0.00000  -0.00000   0.00000   0.00000   2.09440
    R4        2.07897  -0.00015  -0.00042  -0.00000  -0.00042   2.07855
    A4        1.91063   0.00000  -0.00000   0.00000   0.00000   1.91063
    D4        4.18879   0.00000  -0.00000   0.00000   0.00000   4.18879
         Item               Value     Threshold  Converged?
 Maximum Force            0.000146     0.000450     YES
 RMS     Force            0.000097     0.000300     YES
 Maximum Displacement     0.000418     0.001800     YES
 RMS     Displacement     0.000278     0.001200     YES
 Predicted change in Energy=-1.195575D-07
 Optimization completed.
    -- Stationary point found.
                       ----------------------------
                       !   Optimized Parameters   !
                       ! (Angstroms and Degrees)  !
 ----------------------                            ----------------------
 !      Name          Value   Derivative information (Atomic Units)     !
 ------------------------------------------------------------------------
 !       R1          1.1001   -DE/DX =   -0.0001                        !
 !       R2          1.1001   -DE/DX =   -0.0001                        !
 !       A2        109.4712   -DE/DX =    0.0                           !
 !       R3          1.1001   -DE/DX =   -0.0001                        !
 !       A3        109.4712   -DE/DX =    0.0                           !
 !       D3        120.0      -DE/DX =    0.0                           !
 !       R4          1.1001   -DE/DX =   -0.0001                        !
 !       A4        109.4712   -DE/DX =    0.0                           !
 !       D4        240.0      -DE/DX =    0.0                           !
 ------------------------------------------------------------------------
 Lowest energy point so far.  Saving SCF results.
 GradGradGradGradGradGradGradGradGradGradGradGradGradGradGradGradGradGrad

 Largest change from initial coordinates is atom    2       0.007 Angstoms.
 Leave Link  103 at Fri Aug 23 16:55:41 2019, MaxMem=  2684354560 cpu:         0.2
 (Enter /soft/gaussian/09-e.01/g09/l202.exe)
 ---------------------------------------------------------------------------------------------------
                            Z-MATRIX (ANGSTROMS AND DEGREES)
   CD    Cent   Atom    N1       Length/X        N2       Alpha/Y        N3        Beta/Z          J
 ---------------------------------------------------------------------------------------------------
      1      1  C 
      2      2  H        1   1.100142(     1)
      3      3  H        1   1.100142(     2)      2  109.471(     5)
      4      4  H        1   1.100142(     3)      2  109.471(     6)      3  120.000(     8)      0
      5      5  H        1   1.100142(     4)      2  109.471(     7)      3  240.000(     9)      0
 ---------------------------------------------------------------------------------------------------
                         Z-Matrix orientation:                         
 ---------------------------------------------------------------------
 Center     Atomic      Atomic             Coordinates (Angstroms)
 Number     Number       Type             X           Y           Z
 ---------------------------------------------------------------------
      1          6           0        0.000000    0.000000    0.000000
      2          1           0        0.000000    0.000000    1.100142
      3          1           0        1.037224    0.000000   -0.366714
      4          1           0       -0.518612   -0.898262   -0.366714
      5          1           0       -0.518612    0.898262   -0.366714
 ---------------------------------------------------------------------
                    Distance matrix (angstroms):
                    1          2          3          4          5
     1  C    0.000000
     2  H    1.100142   0.000000
     3  H    1.100142   1.796524   0.000000
     4  H    1.100142   1.796524   1.796524   0.000000
     5  H    1.100142   1.796524   1.796524   1.796524   0.000000
 Stoichiometry    CH4
 Framework group  TD[O(C),4C3(H)]
 Deg. of freedom     1
 Full point group                 TD      NOp  24
 RotChk:  IX=0 Diff= 4.59D-16
 Largest Abelian subgroup         D2      NOp   4
 Largest concise Abelian subgroup D2      NOp   4
                         Standard orientation:                         
 ---------------------------------------------------------------------
 Center     Atomic      Atomic             Coordinates (Angstroms)
 Number     Number       Type             X           Y           Z
 ---------------------------------------------------------------------
      1          6           0        0.000000    0.000000    0.000000
      2          1           0        0.635167    0.635167    0.635167
      3          1           0       -0.635167   -0.635167    0.635167
      4          1           0       -0.635167    0.635167   -0.635167
      5          1           0        0.635167   -0.635167   -0.635167
 ---------------------------------------------------------------------
 Rotational constants (GHZ):    155.3695991    155.3695991    155.3695991
 Leave Link  202 at Fri Aug 23 16:55:41 2019, MaxMem=  2684354560 cpu:         0.2
 (Enter /soft/gaussian/09-e.01/g09/l601.exe)
 Copying SCF densities to generalized density rwf, IOpCl= 0 IROHF=0.

 **********************************************************************

            Population analysis using the SCF density.

 **********************************************************************

 Orbital symmetries:
       Occupied  (A1) (A1) (T2) (T2) (T2)
       Virtual   (A1) (T2) (T2) (T2) (T2) (T2) (T2) (T2) (T2) (T2)
                 (A1) (E) (E) (A1) (T1) (T1) (T1) (T2) (T2) (T2)
                 (T2) (T2) (T2) (E) (E) (A1) (T2) (T2) (T2)
 The electronic state is 1-A1.
 Alpha  occ. eigenvalues --  -10.17473  -0.69022  -0.38842  -0.38842  -0.38842
 Alpha virt. eigenvalues --    0.07297   0.14281   0.14281   0.14281   0.41372
 Alpha virt. eigenvalues --    0.41372   0.41372   0.64985   0.64985   0.64985
 Alpha virt. eigenvalues --    0.67681   0.90081   0.90081   1.04146   1.41468
 Alpha virt. eigenvalues --    1.41468   1.41468   1.60993   1.60993   1.60993
 Alpha virt. eigenvalues --    1.92043   1.92043   1.92043   2.23276   2.23276
 Alpha virt. eigenvalues --    2.39103   2.42670   2.42670   2.42670
          Condensed to atoms (all electrons):
               1          2          3          4          5
     1  C    4.502872   0.406217   0.406217   0.406217   0.406217
     2  H    0.406217   0.631897  -0.023349  -0.023349  -0.023349
     3  H    0.406217  -0.023349   0.631897  -0.023349  -0.023349
     4  H    0.406217  -0.023349  -0.023349   0.631897  -0.023349
     5  H    0.406217  -0.023349  -0.023349  -0.023349   0.631897
 Mulliken charges:
               1
     1  C   -0.127739
     2  H    0.031935
     3  H    0.031935
     4  H    0.031935
     5  H    0.031935
 Sum of Mulliken charges =  -0.00000
 Mulliken charges with hydrogens summed into heavy atoms:
               1
     1  C   -0.000000
 Electronic spatial extent (au):  <R**2>=             35.8651
 Charge=             -0.0000 electrons
 Dipole moment (field-independent basis, Debye):
    X=              0.0000    Y=              0.0000    Z=              0.0000  Tot=              0.0000
 Quadrupole moment (field-independent basis, Debye-Ang):
   XX=             -8.3288   YY=             -8.3288   ZZ=             -8.3288
   XY=              0.0000   XZ=              0.0000   YZ=              0.0000
 Traceless Quadrupole moment (field-independent basis, Debye-Ang):
   XX=              0.0000   YY=             -0.0000   ZZ=             -0.0000
   XY=              0.0000   XZ=              0.0000   YZ=              0.0000
 Octapole moment (field-independent basis, Debye-Ang**2):
  XXX=             -0.0000  YYY=             -0.0000  ZZZ=             -0.0000  XYY=              0.0000
  XXY=             -0.0000  XXZ=              0.0000  XZZ=              0.0000  YZZ=              0.0000
  YYZ=              0.0000  XYZ=              0.5886
 Hexadecapole moment (field-independent basis, Debye-Ang**3):
 XXXX=            -16.3773 YYYY=            -16.3773 ZZZZ=            -16.3773 XXXY=             -0.0000
 XXXZ=              0.0000 YYYX=              0.0000 YYYZ=              0.0000 ZZZX=              0.0000
 ZZZY=              0.0000 XXYY=             -4.9970 XXZZ=             -4.9970 YYZZ=             -4.9970
 XXYZ=              0.0000 YYXZ=              0.0000 ZZXY=              0.0000
 N-N= 1.331153418488D+01 E-N=-1.196436702533D+02  KE= 4.006078081762D+01
 Symmetry A    KE= 3.440661244120D+01
 Symmetry B1   KE= 1.884722792140D+00
 Symmetry B2   KE= 1.884722792140D+00
 Symmetry B3   KE= 1.884722792140D+00
 No NMR shielding tensors so no spin-rotation constants.
 Leave Link  601 at Fri Aug 23 16:55:41 2019, MaxMem=  2684354560 cpu:         1.7
 (Enter /soft/gaussian/09-e.01/g09/l9999.exe)
 1\1\GINC-BLUESLOGIN2\POpt\RB3LYP\CC-pVDZ\C1H4\ELLIOTT\23-Aug-2019\1\\#
 P b3lyp/cc-pvdz # SCF=(xqc) # POpt=() # int=ultrafine\\comment:\\0,1\C
 \H,1,R1\H,1,R2,2,A2\H,1,R3,2,A3,3,D3,0\H,1,R4,2,A4,3,D4,0\\R1=1.100141
 73\R2=1.10014173\A2=109.47122063\R3=1.10014173\A3=109.47122063\D3=120.
 \R4=1.10014173\A4=109.47122063\D4=240.\\Version=ES64L-G09RevE.01\State
 =1-A1\HF=-40.5163488\RMSD=7.171e-10\RMSF=7.533e-05\Dipole=0.,0.,0.\Qua
 drupole=0.,0.,0.,0.,0.,0.\PG=TD [O(C1),4C3(H1)]\\@


 A MATHEMATICIAN IS A MACHINE FOR TURNING COFFEE INTO THEOREMS.
     -- QUOTED BY PAUL ERDOS
 Job cpu time:       0 days  0 hours  0 minutes 38.5 seconds.
 File lengths (MBytes):  RWF=    132 Int=      0 D2E=      0 Chk=      2 Scr=      2
 Normal termination of Gaussian 09 at Fri Aug 23 16:55:41 2019.
