
    -----------------------------------------------------------------------
          Psi4: An Open-Source Ab Initio Electronic Structure Package
                               Psi4 1.3.2 release

                         Git: Rev {HEAD} ecbda83 


    R. M. Parrish, L. A. Burns, D. G. A. Smith, A. C. Simmonett,
    A. E. DePrince III, E. G. Hohenstein, U. Bozkaya, A. Yu. Sokolov,
    R. Di Remigio, R. M. Richard, J. F. Gonthier, A. M. James,
    H. R. McAlexander, A. Kumar, M. Saitow, X. Wang, B. P. Pritchard,
    P. Verma, H. F. Schaefer III, K. Patkowski, R. A. King, E. F. Valeev,
    F. A. Evangelista, J. M. Turney, T. D. Crawford, and C. D. Sherrill,
    J. Chem. Theory Comput. 13(7) pp 3185--3197 (2017).
    (doi: 10.1021/acs.jctc.7b00174)


                         Additional Contributions by
    P. Kraus, H. Kruse, M. H. Lechner, M. C. Schieber, R. A. Shaw,
    A. Alenaizan, R. Galvelis, Z. L. Glick, S. Lehtola, and J. P. Misiewicz

    -----------------------------------------------------------------------


    Psi4 started on: Friday, 23 August 2019 03:29PM

    Process ID: 18005
    Host:       blueslogin2
    PSIDATADIR: /home/elliott/miniconda2/envs/pacc-env-mini/share/psi4
    Memory:     500.0 MiB
    Threads:    1
    
  ==> Input File <==

--------------------------------------------------------------------------
#! 
memory 1 GB

molecule {

0 1
N   -0.053809  -0.036288  -0.027435
H   -0.053809  -0.036288   0.991687
H   -0.053809   0.944233  -0.305260
H    0.855261  -0.403751  -0.305241
}
set basis 6-31g*
set scf_type pk
set reference rks
set mp2_type conv
_, wfn = frequency('B3LYP', return_wfn=True)
hess = wfn.hessian()
hess.name = 'Hessian'
hess.print_out()
--------------------------------------------------------------------------

  Memory set to 953.674 MiB by Python driver.
gradient() will perform analytic gradient computation.

*** tstart() called on blueslogin2
*** at Fri Aug 23 15:29:39 2019

   => Loading Basis Set <=

    Name: 6-31G*
    Role: ORBITAL
    Keyword: BASIS
    atoms 1   entry N          line   128 file /home/elliott/miniconda2/envs/pacc-env-mini/share/psi4/basis/6-31gs.gbs 
    atoms 2-4 entry H          line    44 file /home/elliott/miniconda2/envs/pacc-env-mini/share/psi4/basis/6-31gs.gbs 


         ---------------------------------------------------------
                                   SCF
               by Justin Turney, Rob Parrish, Andy Simmonett
                          and Daniel G. A. Smith
                              RKS Reference
                        1 Threads,    953 MiB Core
         ---------------------------------------------------------

  ==> Geometry <==

    Molecular point group: c1
    Full point group: C1

    Geometry (in Angstrom), charge = 0, multiplicity = 1:

       Center              X                  Y                   Z               Mass       
    ------------   -----------------  -----------------  -----------------  -----------------
         N           -0.053809112851    -0.036287752435    -0.027434674474    14.003074004430
         H           -0.053809112851    -0.036287752435     0.991687325526     1.007825032230
         H           -0.053809112851     0.944233247565    -0.305259674474     1.007825032230
         H            0.855260887149    -0.403750752435    -0.305240674474     1.007825032230

  Running in c1 symmetry.

  Rotational constants: A =      9.78054  B =      9.78043  C =      6.32756 [cm^-1]
  Rotational constants: A = 293213.28305  B = 293209.87871  C = 189695.50266 [MHz]
  Nuclear repulsion =   11.880622952151196

  Charge       = 0
  Multiplicity = 1
  Electrons    = 10
  Nalpha       = 5
  Nbeta        = 5

  ==> Algorithm <==

  SCF Algorithm Type is PK.
  DIIS enabled.
  MOM disabled.
  Fractional occupation disabled.
  Guess Type is SAD.
  Energy threshold   = 1.00e-08
  Density threshold  = 1.00e-08
  Integral threshold = 0.00e+00

  ==> Primary Basis <==

  Basis Set: 6-31G*
    Blend: 6-31G*
    Number of shells: 12
    Number of basis function: 21
    Number of Cartesian functions: 21
    Spherical Harmonics?: false
    Max angular momentum: 2

  ==> DFT Potential <==

   => Composite Functional: B3LYP <= 

    B3LYP Hyb-GGA Exchange-Correlation Functional

    P. J. Stephens, F. J. Devlin, C. F. Chabalowski, and M. J. Frisch, J. Phys. Chem. 98, 11623 (1994)

    Deriv               =              1
    GGA                 =           TRUE
    Meta                =          FALSE

    Exchange Hybrid     =           TRUE
    MP2 Hybrid          =          FALSE

   => Exchange Functionals <=

    0.0800   Slater exchange
    0.7200         Becke 88

   => Exact (HF) Exchange <=

    0.2000               HF 

   => Correlation Functionals <=

    0.1900   Vosko, Wilk & Nusair (VWN5_RPA)
    0.8100   Lee, Yang & Parr

   => Molecular Quadrature <=

    Radial Scheme          =       TREUTLER
    Pruning Scheme         =           FLAT
    Nuclear Scheme         =       TREUTLER

    BS radius alpha        =              1
    Pruning alpha          =              1
    Radial Points          =             75
    Spherical Points       =            302
    Total Points           =          87805
    Total Blocks           =            712
    Max Points             =            256
    Max Functions          =             21

  ==> Pre-Iterations <==

   -------------------------------------------------------
    Irrep   Nso     Nmo     Nalpha   Nbeta   Ndocc  Nsocc
   -------------------------------------------------------
     A         21      21       0       0       0       0
   -------------------------------------------------------
    Total      21      21       5       5       5       0
   -------------------------------------------------------

  ==> Integral Setup <==

  Using in-core PK algorithm.
   Calculation information:
      Number of atoms:                   4
      Number of AO shells:              12
      Number of primitives:             27
      Number of atomic orbitals:        21
      Number of basis functions:        21

      Integral cutoff                 1.00e-12
      Number of threads:                 1

  Performing in-core PK
  Using 53592 doubles for integral storage.
  We computed 3081 shell quartets total.
  Whereas there are 3081 unique shell quartets.

  ==> DiskJK: Disk-Based J/K Matrices <==

    J tasked:                  Yes
    K tasked:                  Yes
    wK tasked:                  No
    Memory [MiB]:              662
    Schwarz Cutoff:          1E-12

    OpenMP threads:              1

  Cached 100.0% of DFT collocation blocks in 0.052 [GiB].

  Minimum eigenvalue in the overlap matrix is 2.2368707796E-02.
  Using Symmetric Orthogonalization.

  SCF Guess: Superposition of Atomic Densities via on-the-fly atomic UHF.

  ==> Iterations <==

                        Total Energy        Delta E     RMS |[F,P]|

   @RKS iter SAD:   -56.20301109093439   -5.62030e+01   0.00000e+00 
   @RKS iter   1:   -56.34294147921373   -1.39930e-01   3.31170e-02 DIIS
   @RKS iter   2:   -56.18366017581940    1.59281e-01   4.21000e-02 DIIS
   @RKS iter   3:   -56.54769889460700   -3.64039e-01   1.04476e-03 DIIS
   @RKS iter   4:   -56.54794414372724   -2.45249e-04   1.39572e-04 DIIS
   @RKS iter   5:   -56.54794752459203   -3.38086e-06   2.53054e-05 DIIS
   @RKS iter   6:   -56.54794764241799   -1.17826e-07   1.08918e-06 DIIS
   @RKS iter   7:   -56.54794764271157   -2.93582e-10   5.18855e-08 DIIS
   @RKS iter   8:   -56.54794764271279   -1.22213e-12   8.64570e-09 DIIS
  Energy and wave function converged.


  ==> Post-Iterations <==

    Orbital Energies [Eh]
    ---------------------

    Doubly Occupied:                                                      

       1A    -14.305880     2A     -0.845321     3A     -0.452389  
       4A     -0.452387     5A     -0.252224  

    Virtual:                                                              

       6A      0.078705     7A      0.167919     8A      0.167920  
       9A      0.683308    10A      0.683312    11A      0.721898  
      12A      0.915414    13A      0.915416    14A      0.922231  
      15A      1.155426    16A      1.675444    17A      1.675446  
      18A      1.941670    19A      2.403362    20A      2.403364  
      21A      3.668645  

    Final Occupation by Irrep:
              A 
    DOCC [     5 ]

  @RKS Final Energy:   -56.54794764271279

   => Energetics <=

    Nuclear Repulsion Energy =             11.8806229521511959
    One-Electron Energy =                 -99.5709008376255298
    Two-Electron Energy =                  37.6400391194961088
    DFT Exchange-Correlation Energy =      -6.4977088767345679
    Empirical Dispersion Energy =           0.0000000000000000
    VV10 Nonlocal Energy =                  0.0000000000000000
    Total Energy =                        -56.5479476427127921

Computation Completed


Properties will be evaluated at   0.000000,   0.000000,   0.000000 [a0]

Properties computed using the SCF density matrix

  Nuclear Dipole Moment: [e a0]
     X:     0.7010      Y:     0.4728      Z:     0.3574

  Electronic Dipole Moment: [e a0]
     X:    -0.1275      Y:    -0.0859      Z:    -0.0650

  Dipole Moment: [e a0]
     X:     0.5736      Y:     0.3868      Z:     0.2924     Total:     0.7511

  Dipole Moment: [D]
     X:     1.4579      Y:     0.9832      Z:     0.7433     Total:     1.9091


*** tstop() called on blueslogin2 at Fri Aug 23 15:29:41 2019
Module time:
	user time   =       2.66 seconds =       0.04 minutes
	system time =       0.13 seconds =       0.00 minutes
	total time  =          2 seconds =       0.03 minutes
Total time:
	user time   =       2.66 seconds =       0.04 minutes
	system time =       0.13 seconds =       0.00 minutes
	total time  =          2 seconds =       0.03 minutes

*** tstart() called on blueslogin2
*** at Fri Aug 23 15:29:41 2019


         ------------------------------------------------------------
                                   SCF GRAD                          
                          Rob Parrish, Justin Turney,                
                       Andy Simmonett, and Alex Sokolov              
         ------------------------------------------------------------

  ==> Geometry <==

    Molecular point group: c1
    Full point group: C1

    Geometry (in Angstrom), charge = 0, multiplicity = 1:

       Center              X                  Y                   Z               Mass       
    ------------   -----------------  -----------------  -----------------  -----------------
         N           -0.053809112851    -0.036287752435    -0.027434674474    14.003074004430
         H           -0.053809112851    -0.036287752435     0.991687325526     1.007825032230
         H           -0.053809112851     0.944233247565    -0.305259674474     1.007825032230
         H            0.855260887149    -0.403750752435    -0.305240674474     1.007825032230

  Nuclear repulsion =   11.880622952151196

  ==> Basis Set <==

  Basis Set: 6-31G*
    Blend: 6-31G*
    Number of shells: 12
    Number of basis function: 21
    Number of Cartesian functions: 21
    Spherical Harmonics?: false
    Max angular momentum: 2

  ==> DirectJKGrad: Integral-Direct SCF Gradients <==

    Gradient:                    1
    J tasked:                  Yes
    K tasked:                  Yes
    wK tasked:                  No
    Integrals threads:           1
    Schwarz Cutoff:          0E+00

  ==> DFT Potential <==

   => Composite Functional: B3LYP <= 

    B3LYP Hyb-GGA Exchange-Correlation Functional

    P. J. Stephens, F. J. Devlin, C. F. Chabalowski, and M. J. Frisch, J. Phys. Chem. 98, 11623 (1994)

    Deriv               =              1
    GGA                 =           TRUE
    Meta                =          FALSE

    Exchange Hybrid     =           TRUE
    MP2 Hybrid          =          FALSE

   => Exchange Functionals <=

    0.0800   Slater exchange
    0.7200         Becke 88

   => Exact (HF) Exchange <=

    0.2000               HF 

   => Correlation Functionals <=

    0.1900   Vosko, Wilk & Nusair (VWN5_RPA)
    0.8100   Lee, Yang & Parr

   => Molecular Quadrature <=

    Radial Scheme          =       TREUTLER
    Pruning Scheme         =           FLAT
    Nuclear Scheme         =       TREUTLER

    BS radius alpha        =              1
    Pruning alpha          =              1
    Radial Points          =             75
    Spherical Points       =            302
    Total Points           =          87805
    Total Blocks           =            712
    Max Points             =            256
    Max Functions          =             21


  -Total Gradient:
     Atom            X                  Y                   Z
    ------   -----------------  -----------------  -----------------
       1        0.000297776739     0.000209868102     0.000159395489
       2       -0.000050856749    -0.000035762602    -0.000195118832
       3       -0.000051165653    -0.000198346556     0.000018937460
       4       -0.000201217376     0.000025540543     0.000020146377


*** tstop() called on blueslogin2 at Fri Aug 23 15:29:42 2019
Module time:
	user time   =       0.44 seconds =       0.01 minutes
	system time =       0.01 seconds =       0.00 minutes
	total time  =          1 seconds =       0.02 minutes
Total time:
	user time   =       3.10 seconds =       0.05 minutes
	system time =       0.14 seconds =       0.00 minutes
	total time  =          3 seconds =       0.05 minutes

  Based on options and gradient (rms=1.54E-04), recommend projecting translations and projecting rotations.
hessian() will perform frequency computation by finite difference of analytic gradients.

         ----------------------------------------------------------
                                   FINDIF
                     R. A. King and Jonathon Misiewicz
         ---------------------------------------------------------

  Using finite-differences of gradients to determine vibrational frequencies and 
  normal modes.  Resulting frequencies are only valid at stationary points.
    Generating geometries for use with 3-point formula.
    Displacement size will be 5.00e-03.
    Number of atoms is 4.
    Number of irreps is 1.
    Number of SALCs is 6.
    Translations projected? 1. Rotations projected? 1.
    Index of SALCs per irrep:
     1 :  0  1  2  3  4  5 
    Number of SALCs per irrep:
     Irrep 1: 6
    Number of geometries (including reference) is 13.
    Number of displacements per irrep:
      Irrep 1: 12

  //>>>>>>>>>>>>>>>>>>>>>>>>>>>>>>>>>>>//
  //    Loading displacement 1 of 13   //
  //<<<<<<<<<<<<<<<<<<<<<<<<<<<<<<<<<<<//
gradient() will perform analytic gradient computation.

*** tstart() called on blueslogin2
*** at Fri Aug 23 15:29:45 2019

   => Loading Basis Set <=

    Name: 6-31G*
    Role: ORBITAL
    Keyword: BASIS
    atoms 1   entry N          line   128 file /home/elliott/miniconda2/envs/pacc-env-mini/share/psi4/basis/6-31gs.gbs 
    atoms 2-4 entry H          line    44 file /home/elliott/miniconda2/envs/pacc-env-mini/share/psi4/basis/6-31gs.gbs 


         ---------------------------------------------------------
                                   SCF
               by Justin Turney, Rob Parrish, Andy Simmonett
                          and Daniel G. A. Smith
                              RKS Reference
                        1 Threads,    953 MiB Core
         ---------------------------------------------------------

  ==> Geometry <==

    Molecular point group: c1
    Full point group: C1

    Geometry (in Angstrom), charge = 0, multiplicity = 1:

       Center              X                  Y                   Z               Mass       
    ------------   -----------------  -----------------  -----------------  -----------------
         N           -0.053809112851    -0.036287752435    -0.027434674474    14.003074004430
         H           -0.053809112851    -0.036287752435     0.991687325526     1.007825032230
         H           -0.053809112851     0.944233247565    -0.305259674474     1.007825032230
         H            0.855260887149    -0.403750752435    -0.305240674474     1.007825032230

  Running in c1 symmetry.

  Rotational constants: A =      9.78054  B =      9.78043  C =      6.32756 [cm^-1]
  Rotational constants: A = 293213.28305  B = 293209.87871  C = 189695.50266 [MHz]
  Nuclear repulsion =   11.880622952151196

  Charge       = 0
  Multiplicity = 1
  Electrons    = 10
  Nalpha       = 5
  Nbeta        = 5

  ==> Algorithm <==

  SCF Algorithm Type is PK.
  DIIS enabled.
  MOM disabled.
  Fractional occupation disabled.
  Guess Type is SAD.
  Energy threshold   = 1.00e-08
  Density threshold  = 1.00e-08
  Integral threshold = 0.00e+00

  ==> Primary Basis <==

  Basis Set: 6-31G*
    Blend: 6-31G*
    Number of shells: 12
    Number of basis function: 21
    Number of Cartesian functions: 21
    Spherical Harmonics?: false
    Max angular momentum: 2

  ==> DFT Potential <==

   => Composite Functional: B3LYP <= 

    B3LYP Hyb-GGA Exchange-Correlation Functional

    P. J. Stephens, F. J. Devlin, C. F. Chabalowski, and M. J. Frisch, J. Phys. Chem. 98, 11623 (1994)

    Deriv               =              1
    GGA                 =           TRUE
    Meta                =          FALSE

    Exchange Hybrid     =           TRUE
    MP2 Hybrid          =          FALSE

   => Exchange Functionals <=

    0.0800   Slater exchange
    0.7200         Becke 88

   => Exact (HF) Exchange <=

    0.2000               HF 

   => Correlation Functionals <=

    0.1900   Vosko, Wilk & Nusair (VWN5_RPA)
    0.8100   Lee, Yang & Parr

   => Molecular Quadrature <=

    Radial Scheme          =       TREUTLER
    Pruning Scheme         =           FLAT
    Nuclear Scheme         =       TREUTLER

    BS radius alpha        =              1
    Pruning alpha          =              1
    Radial Points          =             75
    Spherical Points       =            302
    Total Points           =          87805
    Total Blocks           =            712
    Max Points             =            256
    Max Functions          =             21

  ==> Pre-Iterations <==

   -------------------------------------------------------
    Irrep   Nso     Nmo     Nalpha   Nbeta   Ndocc  Nsocc
   -------------------------------------------------------
     A         21      21       0       0       0       0
   -------------------------------------------------------
    Total      21      21       5       5       5       0
   -------------------------------------------------------

  ==> Integral Setup <==

  Using in-core PK algorithm.
   Calculation information:
      Number of atoms:                   4
      Number of AO shells:              12
      Number of primitives:             27
      Number of atomic orbitals:        21
      Number of basis functions:        21

      Integral cutoff                 1.00e-12
      Number of threads:                 1

  Performing in-core PK
  Using 53592 doubles for integral storage.
  We computed 3081 shell quartets total.
  Whereas there are 3081 unique shell quartets.

  ==> DiskJK: Disk-Based J/K Matrices <==

    J tasked:                  Yes
    K tasked:                  Yes
    wK tasked:                  No
    Memory [MiB]:              662
    Schwarz Cutoff:          1E-12

    OpenMP threads:              1

  Cached 100.0% of DFT collocation blocks in 0.052 [GiB].

  Minimum eigenvalue in the overlap matrix is 2.2368707796E-02.
  Using Symmetric Orthogonalization.

  SCF Guess: Superposition of Atomic Densities via on-the-fly atomic UHF.

  ==> Iterations <==

                        Total Energy        Delta E     RMS |[F,P]|

   @RKS iter SAD:   -56.20301109093439   -5.62030e+01   0.00000e+00 
   @RKS iter   1:   -56.34294147921371   -1.39930e-01   3.31170e-02 DIIS
   @RKS iter   2:   -56.18366017581936    1.59281e-01   4.21000e-02 DIIS
   @RKS iter   3:   -56.54769889460696   -3.64039e-01   1.04476e-03 DIIS
   @RKS iter   4:   -56.54794414372718   -2.45249e-04   1.39572e-04 DIIS
   @RKS iter   5:   -56.54794752459198   -3.38086e-06   2.53054e-05 DIIS
   @RKS iter   6:   -56.54794764241799   -1.17826e-07   1.08918e-06 DIIS
   @RKS iter   7:   -56.54794764271151   -2.93518e-10   5.18855e-08 DIIS
   @RKS iter   8:   -56.54794764271274   -1.22924e-12   8.64570e-09 DIIS
  Energy and wave function converged.


  ==> Post-Iterations <==

    Orbital Energies [Eh]
    ---------------------

    Doubly Occupied:                                                      

       1A    -14.305880     2A     -0.845321     3A     -0.452389  
       4A     -0.452387     5A     -0.252224  

    Virtual:                                                              

       6A      0.078705     7A      0.167919     8A      0.167920  
       9A      0.683308    10A      0.683312    11A      0.721898  
      12A      0.915414    13A      0.915416    14A      0.922231  
      15A      1.155426    16A      1.675444    17A      1.675446  
      18A      1.941670    19A      2.403362    20A      2.403364  
      21A      3.668645  

    Final Occupation by Irrep:
              A 
    DOCC [     5 ]

  @RKS Final Energy:   -56.54794764271274

   => Energetics <=

    Nuclear Repulsion Energy =             11.8806229521511959
    One-Electron Energy =                 -99.5709008376254161
    Two-Electron Energy =                  37.6400391194960307
    DFT Exchange-Correlation Energy =      -6.4977088767345572
    Empirical Dispersion Energy =           0.0000000000000000
    VV10 Nonlocal Energy =                  0.0000000000000000
    Total Energy =                        -56.5479476427127423

Computation Completed


Properties will be evaluated at   0.000000,   0.000000,   0.000000 [a0]

Properties computed using the SCF density matrix

  Nuclear Dipole Moment: [e a0]
     X:     0.7010      Y:     0.4728      Z:     0.3574

  Electronic Dipole Moment: [e a0]
     X:    -0.1275      Y:    -0.0859      Z:    -0.0650

  Dipole Moment: [e a0]
     X:     0.5736      Y:     0.3868      Z:     0.2924     Total:     0.7511

  Dipole Moment: [D]
     X:     1.4579      Y:     0.9832      Z:     0.7433     Total:     1.9091


*** tstop() called on blueslogin2 at Fri Aug 23 15:29:48 2019
Module time:
	user time   =       2.82 seconds =       0.05 minutes
	system time =       0.11 seconds =       0.00 minutes
	total time  =          3 seconds =       0.05 minutes
Total time:
	user time   =       6.91 seconds =       0.12 minutes
	system time =       0.65 seconds =       0.01 minutes
	total time  =          9 seconds =       0.15 minutes

*** tstart() called on blueslogin2
*** at Fri Aug 23 15:29:48 2019


         ------------------------------------------------------------
                                   SCF GRAD                          
                          Rob Parrish, Justin Turney,                
                       Andy Simmonett, and Alex Sokolov              
         ------------------------------------------------------------

  ==> Geometry <==

    Molecular point group: c1
    Full point group: C1

    Geometry (in Angstrom), charge = 0, multiplicity = 1:

       Center              X                  Y                   Z               Mass       
    ------------   -----------------  -----------------  -----------------  -----------------
         N           -0.053809112851    -0.036287752435    -0.027434674474    14.003074004430
         H           -0.053809112851    -0.036287752435     0.991687325526     1.007825032230
         H           -0.053809112851     0.944233247565    -0.305259674474     1.007825032230
         H            0.855260887149    -0.403750752435    -0.305240674474     1.007825032230

  Nuclear repulsion =   11.880622952151196

  ==> Basis Set <==

  Basis Set: 6-31G*
    Blend: 6-31G*
    Number of shells: 12
    Number of basis function: 21
    Number of Cartesian functions: 21
    Spherical Harmonics?: false
    Max angular momentum: 2

  ==> DirectJKGrad: Integral-Direct SCF Gradients <==

    Gradient:                    1
    J tasked:                  Yes
    K tasked:                  Yes
    wK tasked:                  No
    Integrals threads:           1
    Schwarz Cutoff:          0E+00

  ==> DFT Potential <==

   => Composite Functional: B3LYP <= 

    B3LYP Hyb-GGA Exchange-Correlation Functional

    P. J. Stephens, F. J. Devlin, C. F. Chabalowski, and M. J. Frisch, J. Phys. Chem. 98, 11623 (1994)

    Deriv               =              1
    GGA                 =           TRUE
    Meta                =          FALSE

    Exchange Hybrid     =           TRUE
    MP2 Hybrid          =          FALSE

   => Exchange Functionals <=

    0.0800   Slater exchange
    0.7200         Becke 88

   => Exact (HF) Exchange <=

    0.2000               HF 

   => Correlation Functionals <=

    0.1900   Vosko, Wilk & Nusair (VWN5_RPA)
    0.8100   Lee, Yang & Parr

   => Molecular Quadrature <=

    Radial Scheme          =       TREUTLER
    Pruning Scheme         =           FLAT
    Nuclear Scheme         =       TREUTLER

    BS radius alpha        =              1
    Pruning alpha          =              1
    Radial Points          =             75
    Spherical Points       =            302
    Total Points           =          87805
    Total Blocks           =            712
    Max Points             =            256
    Max Functions          =             21


  -Total Gradient:
     Atom            X                  Y                   Z
    ------   -----------------  -----------------  -----------------
       1        0.000297776739     0.000209868102     0.000159395489
       2       -0.000050856749    -0.000035762602    -0.000195118832
       3       -0.000051165653    -0.000198346556     0.000018937460
       4       -0.000201217376     0.000025540543     0.000020146377


*** tstop() called on blueslogin2 at Fri Aug 23 15:29:48 2019
Module time:
	user time   =       0.58 seconds =       0.01 minutes
	system time =       0.00 seconds =       0.00 minutes
	total time  =          0 seconds =       0.00 minutes
Total time:
	user time   =       7.49 seconds =       0.12 minutes
	system time =       0.65 seconds =       0.01 minutes
	total time  =          9 seconds =       0.15 minutes

  //>>>>>>>>>>>>>>>>>>>>>>>>>>>>>>>>>>>//
  //    Loading displacement 2 of 13   //
  //<<<<<<<<<<<<<<<<<<<<<<<<<<<<<<<<<<<//
gradient() will perform analytic gradient computation.

*** tstart() called on blueslogin2
*** at Fri Aug 23 15:29:48 2019

   => Loading Basis Set <=

    Name: 6-31G*
    Role: ORBITAL
    Keyword: BASIS
    atoms 1   entry N          line   128 file /home/elliott/miniconda2/envs/pacc-env-mini/share/psi4/basis/6-31gs.gbs 
    atoms 2-4 entry H          line    44 file /home/elliott/miniconda2/envs/pacc-env-mini/share/psi4/basis/6-31gs.gbs 


         ---------------------------------------------------------
                                   SCF
               by Justin Turney, Rob Parrish, Andy Simmonett
                          and Daniel G. A. Smith
                              RKS Reference
                        1 Threads,    953 MiB Core
         ---------------------------------------------------------

  ==> Geometry <==

    Molecular point group: c1
    Full point group: C1

    Geometry (in Angstrom), charge = 0, multiplicity = 1:

       Center              X                  Y                   Z               Mass       
    ------------   -----------------  -----------------  -----------------  -----------------
         N           -0.054092610786    -0.036315727682    -0.027455824728    14.003074004430
         H           -0.052729712901    -0.036315729294     0.991666175272     1.007825032230
         H           -0.052729706882     0.944205272758    -0.305280823176     1.007825032230
         H            0.857041100834    -0.403306102894    -0.304904506490     1.007825032230

  Running in c1 symmetry.

  Rotational constants: A =      9.76545  B =      9.76536  C =      6.32755 [cm^-1]
  Rotational constants: A = 292760.72187  B = 292758.16117  C = 189695.13303 [MHz]
  Nuclear repulsion =   11.875010994565667

  Charge       = 0
  Multiplicity = 1
  Electrons    = 10
  Nalpha       = 5
  Nbeta        = 5

  ==> Algorithm <==

  SCF Algorithm Type is PK.
  DIIS enabled.
  MOM disabled.
  Fractional occupation disabled.
  Guess Type is SAD.
  Energy threshold   = 1.00e-08
  Density threshold  = 1.00e-08
  Integral threshold = 0.00e+00

  ==> Primary Basis <==

  Basis Set: 6-31G*
    Blend: 6-31G*
    Number of shells: 12
    Number of basis function: 21
    Number of Cartesian functions: 21
    Spherical Harmonics?: false
    Max angular momentum: 2

  ==> DFT Potential <==

   => Composite Functional: B3LYP <= 

    B3LYP Hyb-GGA Exchange-Correlation Functional

    P. J. Stephens, F. J. Devlin, C. F. Chabalowski, and M. J. Frisch, J. Phys. Chem. 98, 11623 (1994)

    Deriv               =              1
    GGA                 =           TRUE
    Meta                =          FALSE

    Exchange Hybrid     =           TRUE
    MP2 Hybrid          =          FALSE

   => Exchange Functionals <=

    0.0800   Slater exchange
    0.7200         Becke 88

   => Exact (HF) Exchange <=

    0.2000               HF 

   => Correlation Functionals <=

    0.1900   Vosko, Wilk & Nusair (VWN5_RPA)
    0.8100   Lee, Yang & Parr

   => Molecular Quadrature <=

    Radial Scheme          =       TREUTLER
    Pruning Scheme         =           FLAT
    Nuclear Scheme         =       TREUTLER

    BS radius alpha        =              1
    Pruning alpha          =              1
    Radial Points          =             75
    Spherical Points       =            302
    Total Points           =          87801
    Total Blocks           =            716
    Max Points             =            256
    Max Functions          =             21

  ==> Pre-Iterations <==

   -------------------------------------------------------
    Irrep   Nso     Nmo     Nalpha   Nbeta   Ndocc  Nsocc
   -------------------------------------------------------
     A         21      21       0       0       0       0
   -------------------------------------------------------
    Total      21      21       5       5       5       0
   -------------------------------------------------------

  ==> Integral Setup <==

  Using in-core PK algorithm.
   Calculation information:
      Number of atoms:                   4
      Number of AO shells:              12
      Number of primitives:             27
      Number of atomic orbitals:        21
      Number of basis functions:        21

      Integral cutoff                 1.00e-12
      Number of threads:                 1

  Performing in-core PK
  Using 53592 doubles for integral storage.
  We computed 3081 shell quartets total.
  Whereas there are 3081 unique shell quartets.

  ==> DiskJK: Disk-Based J/K Matrices <==

    J tasked:                  Yes
    K tasked:                  Yes
    wK tasked:                  No
    Memory [MiB]:              662
    Schwarz Cutoff:          1E-12

    OpenMP threads:              1

  Cached 100.0% of DFT collocation blocks in 0.052 [GiB].

  Minimum eigenvalue in the overlap matrix is 2.2380125787E-02.
  Using Symmetric Orthogonalization.

  SCF Guess: Superposition of Atomic Densities via on-the-fly atomic UHF.

  ==> Iterations <==

                        Total Energy        Delta E     RMS |[F,P]|

   @RKS iter SAD:   -56.20256043515079   -5.62026e+01   0.00000e+00 
   @RKS iter   1:   -56.34303489484421   -1.40474e-01   3.31044e-02 DIIS
   @RKS iter   2:   -56.18331196761000    1.59723e-01   4.21089e-02 DIIS
   @RKS iter   3:   -56.54769683752509   -3.64385e-01   1.04774e-03 DIIS
   @RKS iter   4:   -56.54794354678071   -2.46709e-04   1.39575e-04 DIIS
   @RKS iter   5:   -56.54794692859974   -3.38182e-06   2.53390e-05 DIIS
   @RKS iter   6:   -56.54794704682527   -1.18226e-07   1.09028e-06 DIIS
   @RKS iter   7:   -56.54794704712082   -2.95550e-10   5.30492e-08 DIIS
   @RKS iter   8:   -56.54794704712211   -1.28608e-12   9.96017e-09 DIIS
  Energy and wave function converged.


  ==> Post-Iterations <==

    Orbital Energies [Eh]
    ---------------------

    Doubly Occupied:                                                      

       1A    -14.306113     2A     -0.845280     3A     -0.452465  
       4A     -0.451874     5A     -0.252447  

    Virtual:                                                              

       6A      0.078528     7A      0.167502     8A      0.167906  
       9A      0.683041    10A      0.683349    11A      0.721897  
      12A      0.914459    13A      0.915375    14A      0.922178  
      15A      1.156258    16A      1.675393    17A      1.675557  
      18A      1.940185    19A      2.401936    20A      2.403476  
      21A      3.668162  

    Final Occupation by Irrep:
              A 
    DOCC [     5 ]

  @RKS Final Energy:   -56.54794704712211

   => Energetics <=

    Nuclear Repulsion Energy =             11.8750109945656668
    One-Electron Energy =                 -99.5600717904354298
    Two-Electron Energy =                  37.6343109998376235
    DFT Exchange-Correlation Energy =      -6.4971972510899683
    Empirical Dispersion Energy =           0.0000000000000000
    VV10 Nonlocal Energy =                  0.0000000000000000
    Total Energy =                        -56.5479470471221077

Computation Completed


Properties will be evaluated at   0.000000,   0.000000,   0.000000 [a0]

Properties computed using the SCF density matrix

  Nuclear Dipole Moment: [e a0]
     X:     0.7047      Y:     0.4731      Z:     0.3577

  Electronic Dipole Moment: [e a0]
     X:    -0.1299      Y:    -0.0857      Z:    -0.0648

  Dipole Moment: [e a0]
     X:     0.5748      Y:     0.3875      Z:     0.2929     Total:     0.7526

  Dipole Moment: [D]
     X:     1.4611      Y:     0.9848      Z:     0.7446     Total:     1.9129


*** tstop() called on blueslogin2 at Fri Aug 23 15:29:51 2019
Module time:
	user time   =       2.74 seconds =       0.05 minutes
	system time =       0.09 seconds =       0.00 minutes
	total time  =          3 seconds =       0.05 minutes
Total time:
	user time   =      10.24 seconds =       0.17 minutes
	system time =       0.74 seconds =       0.01 minutes
	total time  =         12 seconds =       0.20 minutes

*** tstart() called on blueslogin2
*** at Fri Aug 23 15:29:51 2019


         ------------------------------------------------------------
                                   SCF GRAD                          
                          Rob Parrish, Justin Turney,                
                       Andy Simmonett, and Alex Sokolov              
         ------------------------------------------------------------

  ==> Geometry <==

    Molecular point group: c1
    Full point group: C1

    Geometry (in Angstrom), charge = 0, multiplicity = 1:

       Center              X                  Y                   Z               Mass       
    ------------   -----------------  -----------------  -----------------  -----------------
         N           -0.054092610786    -0.036315727682    -0.027455824728    14.003074004430
         H           -0.052729712901    -0.036315729294     0.991666175272     1.007825032230
         H           -0.052729706882     0.944205272758    -0.305280823176     1.007825032230
         H            0.857041100834    -0.403306102894    -0.304904506490     1.007825032230

  Nuclear repulsion =   11.875010994565667

  ==> Basis Set <==

  Basis Set: 6-31G*
    Blend: 6-31G*
    Number of shells: 12
    Number of basis function: 21
    Number of Cartesian functions: 21
    Spherical Harmonics?: false
    Max angular momentum: 2

  ==> DirectJKGrad: Integral-Direct SCF Gradients <==

    Gradient:                    1
    J tasked:                  Yes
    K tasked:                  Yes
    wK tasked:                  No
    Integrals threads:           1
    Schwarz Cutoff:          0E+00

  ==> DFT Potential <==

   => Composite Functional: B3LYP <= 

    B3LYP Hyb-GGA Exchange-Correlation Functional

    P. J. Stephens, F. J. Devlin, C. F. Chabalowski, and M. J. Frisch, J. Phys. Chem. 98, 11623 (1994)

    Deriv               =              1
    GGA                 =           TRUE
    Meta                =          FALSE

    Exchange Hybrid     =           TRUE
    MP2 Hybrid          =          FALSE

   => Exchange Functionals <=

    0.0800   Slater exchange
    0.7200         Becke 88

   => Exact (HF) Exchange <=

    0.2000               HF 

   => Correlation Functionals <=

    0.1900   Vosko, Wilk & Nusair (VWN5_RPA)
    0.8100   Lee, Yang & Parr

   => Molecular Quadrature <=

    Radial Scheme          =       TREUTLER
    Pruning Scheme         =           FLAT
    Nuclear Scheme         =       TREUTLER

    BS radius alpha        =              1
    Pruning alpha          =              1
    Radial Points          =             75
    Spherical Points       =            302
    Total Points           =          87801
    Total Blocks           =            716
    Max Points             =            256
    Max Functions          =             21


  -Total Gradient:
     Atom            X                  Y                   Z
    ------   -----------------  -----------------  -----------------
       1       -0.001031654900     0.000728234254     0.000547069891
       2        0.000049045592    -0.000111452961    -0.000272245000
       3        0.000049366502    -0.000292936725    -0.000032934767
       4        0.000926058976    -0.000320242420    -0.000241228315


*** tstop() called on blueslogin2 at Fri Aug 23 15:29:52 2019
Module time:
	user time   =       0.45 seconds =       0.01 minutes
	system time =       0.00 seconds =       0.00 minutes
	total time  =          1 seconds =       0.02 minutes
Total time:
	user time   =      10.69 seconds =       0.18 minutes
	system time =       0.74 seconds =       0.01 minutes
	total time  =         13 seconds =       0.22 minutes

  //>>>>>>>>>>>>>>>>>>>>>>>>>>>>>>>>>>>//
  //    Loading displacement 3 of 13   //
  //<<<<<<<<<<<<<<<<<<<<<<<<<<<<<<<<<<<//
gradient() will perform analytic gradient computation.

*** tstart() called on blueslogin2
*** at Fri Aug 23 15:29:52 2019

   => Loading Basis Set <=

    Name: 6-31G*
    Role: ORBITAL
    Keyword: BASIS
    atoms 1   entry N          line   128 file /home/elliott/miniconda2/envs/pacc-env-mini/share/psi4/basis/6-31gs.gbs 
    atoms 2-4 entry H          line    44 file /home/elliott/miniconda2/envs/pacc-env-mini/share/psi4/basis/6-31gs.gbs 


         ---------------------------------------------------------
                                   SCF
               by Justin Turney, Rob Parrish, Andy Simmonett
                          and Daniel G. A. Smith
                              RKS Reference
                        1 Threads,    953 MiB Core
         ---------------------------------------------------------

  ==> Geometry <==

    Molecular point group: c1
    Full point group: C1

    Geometry (in Angstrom), charge = 0, multiplicity = 1:

       Center              X                  Y                   Z               Mass       
    ------------   -----------------  -----------------  -----------------  -----------------
         N           -0.053525614916    -0.036259777189    -0.027413524221    14.003074004430
         H           -0.054888512801    -0.036259775576     0.991708475779     1.007825032230
         H           -0.054888518820     0.944261222372    -0.305238525773     1.007825032230
         H            0.853480673463    -0.404195401977    -0.305576842459     1.007825032230

  Running in c1 symmetry.

  Rotational constants: A =      9.79561  B =      9.79552  C =      6.32755 [cm^-1]
  Rotational constants: A = 293664.90243  B = 293662.30823  C = 189695.14160 [MHz]
  Nuclear repulsion =   11.886231546975981

  Charge       = 0
  Multiplicity = 1
  Electrons    = 10
  Nalpha       = 5
  Nbeta        = 5

  ==> Algorithm <==

  SCF Algorithm Type is PK.
  DIIS enabled.
  MOM disabled.
  Fractional occupation disabled.
  Guess Type is SAD.
  Energy threshold   = 1.00e-08
  Density threshold  = 1.00e-08
  Integral threshold = 0.00e+00

  ==> Primary Basis <==

  Basis Set: 6-31G*
    Blend: 6-31G*
    Number of shells: 12
    Number of basis function: 21
    Number of Cartesian functions: 21
    Spherical Harmonics?: false
    Max angular momentum: 2

  ==> DFT Potential <==

   => Composite Functional: B3LYP <= 

    B3LYP Hyb-GGA Exchange-Correlation Functional

    P. J. Stephens, F. J. Devlin, C. F. Chabalowski, and M. J. Frisch, J. Phys. Chem. 98, 11623 (1994)

    Deriv               =              1
    GGA                 =           TRUE
    Meta                =          FALSE

    Exchange Hybrid     =           TRUE
    MP2 Hybrid          =          FALSE

   => Exchange Functionals <=

    0.0800   Slater exchange
    0.7200         Becke 88

   => Exact (HF) Exchange <=

    0.2000               HF 

   => Correlation Functionals <=

    0.1900   Vosko, Wilk & Nusair (VWN5_RPA)
    0.8100   Lee, Yang & Parr

   => Molecular Quadrature <=

    Radial Scheme          =       TREUTLER
    Pruning Scheme         =           FLAT
    Nuclear Scheme         =       TREUTLER

    BS radius alpha        =              1
    Pruning alpha          =              1
    Radial Points          =             75
    Spherical Points       =            302
    Total Points           =          87802
    Total Blocks           =            713
    Max Points             =            256
    Max Functions          =             21

  ==> Pre-Iterations <==

   -------------------------------------------------------
    Irrep   Nso     Nmo     Nalpha   Nbeta   Ndocc  Nsocc
   -------------------------------------------------------
     A         21      21       0       0       0       0
   -------------------------------------------------------
    Total      21      21       5       5       5       0
   -------------------------------------------------------

  ==> Integral Setup <==

  Using in-core PK algorithm.
   Calculation information:
      Number of atoms:                   4
      Number of AO shells:              12
      Number of primitives:             27
      Number of atomic orbitals:        21
      Number of basis functions:        21

      Integral cutoff                 1.00e-12
      Number of threads:                 1

  Performing in-core PK
  Using 53592 doubles for integral storage.
  We computed 3081 shell quartets total.
  Whereas there are 3081 unique shell quartets.

  ==> DiskJK: Disk-Based J/K Matrices <==

    J tasked:                  Yes
    K tasked:                  Yes
    wK tasked:                  No
    Memory [MiB]:              662
    Schwarz Cutoff:          1E-12

    OpenMP threads:              1

  Cached 100.0% of DFT collocation blocks in 0.052 [GiB].

  Minimum eigenvalue in the overlap matrix is 2.2357293055E-02.
  Using Symmetric Orthogonalization.

  SCF Guess: Superposition of Atomic Densities via on-the-fly atomic UHF.

  ==> Iterations <==

                        Total Energy        Delta E     RMS |[F,P]|

   @RKS iter SAD:   -56.20345923497960   -5.62035e+01   0.00000e+00 
   @RKS iter   1:   -56.34284288458825   -1.39384e-01   3.31297e-02 DIIS
   @RKS iter   2:   -56.18399736506877    1.58846e-01   4.20913e-02 DIIS
   @RKS iter   3:   -56.54769756780403   -3.63700e-01   1.04181e-03 DIIS
   @RKS iter   4:   -56.54794138151178   -2.43814e-04   1.39569e-04 DIIS
   @RKS iter   5:   -56.54794476149132   -3.37998e-06   2.52725e-05 DIIS
   @RKS iter   6:   -56.54794487892596   -1.17435e-07   1.08847e-06 DIIS
   @RKS iter   7:   -56.54794487921779   -2.91827e-10   5.20869e-08 DIIS
   @RKS iter   8:   -56.54794487921884   -1.05160e-12   9.63305e-09 DIIS
  Energy and wave function converged.


  ==> Post-Iterations <==

    Orbital Energies [Eh]
    ---------------------

    Doubly Occupied:                                                      

       1A    -14.305648     2A     -0.845364     3A     -0.452899  
       4A     -0.452313     5A     -0.252001  

    Virtual:                                                              

       6A      0.078880     7A      0.167933     8A      0.168336  
       9A      0.683274    10A      0.683576    11A      0.721900  
      12A      0.915454    13A      0.916257    14A      0.922393  
      15A      1.154601    16A      1.675335    17A      1.675496  
      18A      1.943154    19A      2.403247    20A      2.404781  
      21A      3.669127  

    Final Occupation by Irrep:
              A 
    DOCC [     5 ]

  @RKS Final Energy:   -56.54794487921884

   => Energetics <=

    Nuclear Repulsion Energy =             11.8862315469759814
    One-Electron Energy =                 -99.5817122463479905
    Two-Electron Energy =                  37.6457564183580473
    DFT Exchange-Correlation Energy =      -6.4982205982048757
    Empirical Dispersion Energy =           0.0000000000000000
    VV10 Nonlocal Energy =                  0.0000000000000000
    Total Energy =                        -56.5479448792188393

Computation Completed


Properties will be evaluated at   0.000000,   0.000000,   0.000000 [a0]

Properties computed using the SCF density matrix

  Nuclear Dipole Moment: [e a0]
     X:     0.6974      Y:     0.4724      Z:     0.3572

  Electronic Dipole Moment: [e a0]
     X:    -0.1250      Y:    -0.0862      Z:    -0.0652

  Dipole Moment: [e a0]
     X:     0.5723      Y:     0.3862      Z:     0.2920     Total:     0.7496

  Dipole Moment: [D]
     X:     1.4547      Y:     0.9816      Z:     0.7421     Total:     1.9054


*** tstop() called on blueslogin2 at Fri Aug 23 15:29:54 2019
Module time:
	user time   =       2.60 seconds =       0.04 minutes
	system time =       0.07 seconds =       0.00 minutes
	total time  =          2 seconds =       0.03 minutes
Total time:
	user time   =      13.30 seconds =       0.22 minutes
	system time =       0.81 seconds =       0.01 minutes
	total time  =         15 seconds =       0.25 minutes

*** tstart() called on blueslogin2
*** at Fri Aug 23 15:29:54 2019


         ------------------------------------------------------------
                                   SCF GRAD                          
                          Rob Parrish, Justin Turney,                
                       Andy Simmonett, and Alex Sokolov              
         ------------------------------------------------------------

  ==> Geometry <==

    Molecular point group: c1
    Full point group: C1

    Geometry (in Angstrom), charge = 0, multiplicity = 1:

       Center              X                  Y                   Z               Mass       
    ------------   -----------------  -----------------  -----------------  -----------------
         N           -0.053525614916    -0.036259777189    -0.027413524221    14.003074004430
         H           -0.054888512801    -0.036259775576     0.991708475779     1.007825032230
         H           -0.054888518820     0.944261222372    -0.305238525773     1.007825032230
         H            0.853480673463    -0.404195401977    -0.305576842459     1.007825032230

  Nuclear repulsion =   11.886231546975981

  ==> Basis Set <==

  Basis Set: 6-31G*
    Blend: 6-31G*
    Number of shells: 12
    Number of basis function: 21
    Number of Cartesian functions: 21
    Spherical Harmonics?: false
    Max angular momentum: 2

  ==> DirectJKGrad: Integral-Direct SCF Gradients <==

    Gradient:                    1
    J tasked:                  Yes
    K tasked:                  Yes
    wK tasked:                  No
    Integrals threads:           1
    Schwarz Cutoff:          0E+00

  ==> DFT Potential <==

   => Composite Functional: B3LYP <= 

    B3LYP Hyb-GGA Exchange-Correlation Functional

    P. J. Stephens, F. J. Devlin, C. F. Chabalowski, and M. J. Frisch, J. Phys. Chem. 98, 11623 (1994)

    Deriv               =              1
    GGA                 =           TRUE
    Meta                =          FALSE

    Exchange Hybrid     =           TRUE
    MP2 Hybrid          =          FALSE

   => Exchange Functionals <=

    0.0800   Slater exchange
    0.7200         Becke 88

   => Exact (HF) Exchange <=

    0.2000               HF 

   => Correlation Functionals <=

    0.1900   Vosko, Wilk & Nusair (VWN5_RPA)
    0.8100   Lee, Yang & Parr

   => Molecular Quadrature <=

    Radial Scheme          =       TREUTLER
    Pruning Scheme         =           FLAT
    Nuclear Scheme         =       TREUTLER

    BS radius alpha        =              1
    Pruning alpha          =              1
    Radial Points          =             75
    Spherical Points       =            302
    Total Points           =          87802
    Total Blocks           =            713
    Max Points             =            256
    Max Functions          =             21


  -Total Gradient:
     Atom            X                  Y                   Z
    ------   -----------------  -----------------  -----------------
       1        0.001632947576    -0.000313125693    -0.000240099090
       2       -0.000151395978     0.000040500670    -0.000117034800
       3       -0.000151131950    -0.000102198113     0.000070932187
       4       -0.001337666707     0.000378210386     0.000286801097


*** tstop() called on blueslogin2 at Fri Aug 23 15:29:55 2019
Module time:
	user time   =       0.44 seconds =       0.01 minutes
	system time =       0.01 seconds =       0.00 minutes
	total time  =          1 seconds =       0.02 minutes
Total time:
	user time   =      13.74 seconds =       0.23 minutes
	system time =       0.82 seconds =       0.01 minutes
	total time  =         16 seconds =       0.27 minutes

  //>>>>>>>>>>>>>>>>>>>>>>>>>>>>>>>>>>>//
  //    Loading displacement 4 of 13   //
  //<<<<<<<<<<<<<<<<<<<<<<<<<<<<<<<<<<<//
gradient() will perform analytic gradient computation.

*** tstart() called on blueslogin2
*** at Fri Aug 23 15:29:55 2019

   => Loading Basis Set <=

    Name: 6-31G*
    Role: ORBITAL
    Keyword: BASIS
    atoms 1   entry N          line   128 file /home/elliott/miniconda2/envs/pacc-env-mini/share/psi4/basis/6-31gs.gbs 
    atoms 2-4 entry H          line    44 file /home/elliott/miniconda2/envs/pacc-env-mini/share/psi4/basis/6-31gs.gbs 


         ---------------------------------------------------------
                                   SCF
               by Justin Turney, Rob Parrish, Andy Simmonett
                          and Daniel G. A. Smith
                              RKS Reference
                        1 Threads,    953 MiB Core
         ---------------------------------------------------------

  ==> Geometry <==

    Molecular point group: c1
    Full point group: C1

    Geometry (in Angstrom), charge = 0, multiplicity = 1:

       Center              X                  Y                   Z               Mass       
    ------------   -----------------  -----------------  -----------------  -----------------
         N           -0.053809112851    -0.036558264319    -0.027447434743    14.003074004430
         H           -0.053950052313    -0.035129936539     0.991674565257     1.007825032230
         H           -0.053157865777     0.945925308980    -0.304868533157     1.007825032230
         H            0.854750579537    -0.402842042877    -0.305441759879     1.007825032230

  Running in c1 symmetry.

  Rotational constants: A =      9.77146  B =      9.77132  C =      6.32753 [cm^-1]
  Rotational constants: A = 292940.89550  B = 292936.74169  C = 189694.71883 [MHz]
  Nuclear repulsion =   11.877243661946116

  Charge       = 0
  Multiplicity = 1
  Electrons    = 10
  Nalpha       = 5
  Nbeta        = 5

  ==> Algorithm <==

  SCF Algorithm Type is PK.
  DIIS enabled.
  MOM disabled.
  Fractional occupation disabled.
  Guess Type is SAD.
  Energy threshold   = 1.00e-08
  Density threshold  = 1.00e-08
  Integral threshold = 0.00e+00

  ==> Primary Basis <==

  Basis Set: 6-31G*
    Blend: 6-31G*
    Number of shells: 12
    Number of basis function: 21
    Number of Cartesian functions: 21
    Spherical Harmonics?: false
    Max angular momentum: 2

  ==> DFT Potential <==

   => Composite Functional: B3LYP <= 

    B3LYP Hyb-GGA Exchange-Correlation Functional

    P. J. Stephens, F. J. Devlin, C. F. Chabalowski, and M. J. Frisch, J. Phys. Chem. 98, 11623 (1994)

    Deriv               =              1
    GGA                 =           TRUE
    Meta                =          FALSE

    Exchange Hybrid     =           TRUE
    MP2 Hybrid          =          FALSE

   => Exchange Functionals <=

    0.0800   Slater exchange
    0.7200         Becke 88

   => Exact (HF) Exchange <=

    0.2000               HF 

   => Correlation Functionals <=

    0.1900   Vosko, Wilk & Nusair (VWN5_RPA)
    0.8100   Lee, Yang & Parr

   => Molecular Quadrature <=

    Radial Scheme          =       TREUTLER
    Pruning Scheme         =           FLAT
    Nuclear Scheme         =       TREUTLER

    BS radius alpha        =              1
    Pruning alpha          =              1
    Radial Points          =             75
    Spherical Points       =            302
    Total Points           =          87803
    Total Blocks           =            717
    Max Points             =            255
    Max Functions          =             21

  ==> Pre-Iterations <==

   -------------------------------------------------------
    Irrep   Nso     Nmo     Nalpha   Nbeta   Ndocc  Nsocc
   -------------------------------------------------------
     A         21      21       0       0       0       0
   -------------------------------------------------------
    Total      21      21       5       5       5       0
   -------------------------------------------------------

  ==> Integral Setup <==

  Using in-core PK algorithm.
   Calculation information:
      Number of atoms:                   4
      Number of AO shells:              12
      Number of primitives:             27
      Number of atomic orbitals:        21
      Number of basis functions:        21

      Integral cutoff                 1.00e-12
      Number of threads:                 1

  Performing in-core PK
  Using 53592 doubles for integral storage.
  We computed 3081 shell quartets total.
  Whereas there are 3081 unique shell quartets.

  ==> DiskJK: Disk-Based J/K Matrices <==

    J tasked:                  Yes
    K tasked:                  Yes
    wK tasked:                  No
    Memory [MiB]:              662
    Schwarz Cutoff:          1E-12

    OpenMP threads:              1

  Cached 100.0% of DFT collocation blocks in 0.052 [GiB].

  Minimum eigenvalue in the overlap matrix is 2.2375507908E-02.
  Using Symmetric Orthogonalization.

  SCF Guess: Superposition of Atomic Densities via on-the-fly atomic UHF.

  ==> Iterations <==

                        Total Energy        Delta E     RMS |[F,P]|

   @RKS iter SAD:   -56.20273854372542   -5.62027e+01   0.00000e+00 
   @RKS iter   1:   -56.34299489441786   -1.40256e-01   3.31095e-02 DIIS
   @RKS iter   2:   -56.18344524207360    1.59550e-01   4.21055e-02 DIIS
   @RKS iter   3:   -56.54769601517024   -3.64251e-01   1.04657e-03 DIIS
   @RKS iter   4:   -56.54794215157856   -2.46136e-04   1.39576e-04 DIIS
   @RKS iter   5:   -56.54794553316974   -3.38159e-06   2.53261e-05 DIIS
   @RKS iter   6:   -56.54794565124050   -1.18071e-07   1.09013e-06 DIIS
   @RKS iter   7:   -56.54794565153531   -2.94818e-10   5.36334e-08 DIIS
   @RKS iter   8:   -56.54794565153653   -1.21503e-12   1.10284e-08 DIIS
   @RKS iter   9:   -56.54794565153657   -4.26326e-14   2.63235e-09 DIIS
  Energy and wave function converged.


  ==> Post-Iterations <==

    Orbital Energies [Eh]
    ---------------------

    Doubly Occupied:                                                      

       1A    -14.306020     2A     -0.845297     3A     -0.452686  
       4A     -0.451827     5A     -0.252359  

    Virtual:                                                              

       6A      0.078597     7A      0.167494     8A      0.168085  
       9A      0.683019    10A      0.683462    11A      0.721898  
      12A      0.914411    13A      0.915738    14A      0.922281  
      15A      1.155925    16A      1.675345    17A      1.675582  
      18A      1.940773    19A      2.401841    20A      2.404094  
      21A      3.668354  

    Final Occupation by Irrep:
              A 
    DOCC [     5 ]

  @RKS Final Energy:   -56.54794565153657

   => Energetics <=

    Nuclear Repulsion Energy =             11.8772436619461157
    One-Electron Energy =                 -99.5643741127951216
    Two-Electron Energy =                  37.6365857799018642
    DFT Exchange-Correlation Energy =      -6.4974009805894228
    Empirical Dispersion Energy =           0.0000000000000000
    VV10 Nonlocal Energy =                  0.0000000000000000
    Total Energy =                        -56.5479456515365726

Computation Completed


Properties will be evaluated at   0.000000,   0.000000,   0.000000 [a0]

Properties computed using the SCF density matrix

  Nuclear Dipole Moment: [e a0]
     X:     0.7010      Y:     0.4763      Z:     0.3576

  Electronic Dipole Moment: [e a0]
     X:    -0.1269      Y:    -0.0888      Z:    -0.0649

  Dipole Moment: [e a0]
     X:     0.5741      Y:     0.3875      Z:     0.2927     Total:     0.7520

  Dipole Moment: [D]
     X:     1.4593      Y:     0.9850      Z:     0.7441     Total:     1.9114


*** tstop() called on blueslogin2 at Fri Aug 23 15:29:58 2019
Module time:
	user time   =       2.80 seconds =       0.05 minutes
	system time =       0.08 seconds =       0.00 minutes
	total time  =          3 seconds =       0.05 minutes
Total time:
	user time   =      16.55 seconds =       0.28 minutes
	system time =       0.90 seconds =       0.02 minutes
	total time  =         19 seconds =       0.32 minutes

*** tstart() called on blueslogin2
*** at Fri Aug 23 15:29:58 2019


         ------------------------------------------------------------
                                   SCF GRAD                          
                          Rob Parrish, Justin Turney,                
                       Andy Simmonett, and Alex Sokolov              
         ------------------------------------------------------------

  ==> Geometry <==

    Molecular point group: c1
    Full point group: C1

    Geometry (in Angstrom), charge = 0, multiplicity = 1:

       Center              X                  Y                   Z               Mass       
    ------------   -----------------  -----------------  -----------------  -----------------
         N           -0.053809112851    -0.036558264319    -0.027447434743    14.003074004430
         H           -0.053950052313    -0.035129936539     0.991674565257     1.007825032230
         H           -0.053157865777     0.945925308980    -0.304868533157     1.007825032230
         H            0.854750579537    -0.402842042877    -0.305441759879     1.007825032230

  Nuclear repulsion =   11.877243661946116

  ==> Basis Set <==

  Basis Set: 6-31G*
    Blend: 6-31G*
    Number of shells: 12
    Number of basis function: 21
    Number of Cartesian functions: 21
    Spherical Harmonics?: false
    Max angular momentum: 2

  ==> DirectJKGrad: Integral-Direct SCF Gradients <==

    Gradient:                    1
    J tasked:                  Yes
    K tasked:                  Yes
    wK tasked:                  No
    Integrals threads:           1
    Schwarz Cutoff:          0E+00

  ==> DFT Potential <==

   => Composite Functional: B3LYP <= 

    B3LYP Hyb-GGA Exchange-Correlation Functional

    P. J. Stephens, F. J. Devlin, C. F. Chabalowski, and M. J. Frisch, J. Phys. Chem. 98, 11623 (1994)

    Deriv               =              1
    GGA                 =           TRUE
    Meta                =          FALSE

    Exchange Hybrid     =           TRUE
    MP2 Hybrid          =          FALSE

   => Exchange Functionals <=

    0.0800   Slater exchange
    0.7200         Becke 88

   => Exact (HF) Exchange <=

    0.2000               HF 

   => Correlation Functionals <=

    0.1900   Vosko, Wilk & Nusair (VWN5_RPA)
    0.8100   Lee, Yang & Parr

   => Molecular Quadrature <=

    Radial Scheme          =       TREUTLER
    Pruning Scheme         =           FLAT
    Nuclear Scheme         =       TREUTLER

    BS radius alpha        =              1
    Pruning alpha          =              1
    Radial Points          =             75
    Spherical Points       =            302
    Total Points           =          87803
    Total Blocks           =            717
    Max Points             =            255
    Max Functions          =             21


  -Total Gradient:
     Atom            X                  Y                   Z
    ------   -----------------  -----------------  -----------------
       1        0.000988106686    -0.001682991419     0.000388715053
       2       -0.000140592446     0.000140672596    -0.000241374054
       3        0.000009857145     0.001178511848    -0.000248768493
       4       -0.000856385341     0.000355832101     0.000101280443


*** tstop() called on blueslogin2 at Fri Aug 23 15:29:58 2019
Module time:
	user time   =       0.44 seconds =       0.01 minutes
	system time =       0.01 seconds =       0.00 minutes
	total time  =          0 seconds =       0.00 minutes
Total time:
	user time   =      16.99 seconds =       0.28 minutes
	system time =       0.91 seconds =       0.02 minutes
	total time  =         19 seconds =       0.32 minutes

  //>>>>>>>>>>>>>>>>>>>>>>>>>>>>>>>>>>>//
  //    Loading displacement 5 of 13   //
  //<<<<<<<<<<<<<<<<<<<<<<<<<<<<<<<<<<<//
gradient() will perform analytic gradient computation.

*** tstart() called on blueslogin2
*** at Fri Aug 23 15:29:58 2019

   => Loading Basis Set <=

    Name: 6-31G*
    Role: ORBITAL
    Keyword: BASIS
    atoms 1   entry N          line   128 file /home/elliott/miniconda2/envs/pacc-env-mini/share/psi4/basis/6-31gs.gbs 
    atoms 2-4 entry H          line    44 file /home/elliott/miniconda2/envs/pacc-env-mini/share/psi4/basis/6-31gs.gbs 


         ---------------------------------------------------------
                                   SCF
               by Justin Turney, Rob Parrish, Andy Simmonett
                          and Daniel G. A. Smith
                              RKS Reference
                        1 Threads,    953 MiB Core
         ---------------------------------------------------------

  ==> Geometry <==

    Molecular point group: c1
    Full point group: C1

    Geometry (in Angstrom), charge = 0, multiplicity = 1:

       Center              X                  Y                   Z               Mass       
    ------------   -----------------  -----------------  -----------------  -----------------
         N           -0.053809112851    -0.036017240551    -0.027421914206    14.003074004430
         H           -0.053668173389    -0.037445568332     0.991700085794     1.007825032230
         H           -0.054460359925     0.942541186149    -0.305650815792     1.007825032230
         H            0.855771194760    -0.404659461993    -0.305039589070     1.007825032230

  Running in c1 symmetry.

  Rotational constants: A =      9.78965  B =      9.78951  C =      6.32753 [cm^-1]
  Rotational constants: A = 293486.43044  B = 293482.26258  C = 189694.71466 [MHz]
  Nuclear repulsion =   11.884013561408715

  Charge       = 0
  Multiplicity = 1
  Electrons    = 10
  Nalpha       = 5
  Nbeta        = 5

  ==> Algorithm <==

  SCF Algorithm Type is PK.
  DIIS enabled.
  MOM disabled.
  Fractional occupation disabled.
  Guess Type is SAD.
  Energy threshold   = 1.00e-08
  Density threshold  = 1.00e-08
  Integral threshold = 0.00e+00

  ==> Primary Basis <==

  Basis Set: 6-31G*
    Blend: 6-31G*
    Number of shells: 12
    Number of basis function: 21
    Number of Cartesian functions: 21
    Spherical Harmonics?: false
    Max angular momentum: 2

  ==> DFT Potential <==

   => Composite Functional: B3LYP <= 

    B3LYP Hyb-GGA Exchange-Correlation Functional

    P. J. Stephens, F. J. Devlin, C. F. Chabalowski, and M. J. Frisch, J. Phys. Chem. 98, 11623 (1994)

    Deriv               =              1
    GGA                 =           TRUE
    Meta                =          FALSE

    Exchange Hybrid     =           TRUE
    MP2 Hybrid          =          FALSE

   => Exchange Functionals <=

    0.0800   Slater exchange
    0.7200         Becke 88

   => Exact (HF) Exchange <=

    0.2000               HF 

   => Correlation Functionals <=

    0.1900   Vosko, Wilk & Nusair (VWN5_RPA)
    0.8100   Lee, Yang & Parr

   => Molecular Quadrature <=

    Radial Scheme          =       TREUTLER
    Pruning Scheme         =           FLAT
    Nuclear Scheme         =       TREUTLER

    BS radius alpha        =              1
    Pruning alpha          =              1
    Radial Points          =             75
    Spherical Points       =            302
    Total Points           =          87804
    Total Blocks           =            715
    Max Points             =            256
    Max Functions          =             21

  ==> Pre-Iterations <==

   -------------------------------------------------------
    Irrep   Nso     Nmo     Nalpha   Nbeta   Ndocc  Nsocc
   -------------------------------------------------------
     A         21      21       0       0       0       0
   -------------------------------------------------------
    Total      21      21       5       5       5       0
   -------------------------------------------------------

  ==> Integral Setup <==

  Using in-core PK algorithm.
   Calculation information:
      Number of atoms:                   4
      Number of AO shells:              12
      Number of primitives:             27
      Number of atomic orbitals:        21
      Number of basis functions:        21

      Integral cutoff                 1.00e-12
      Number of threads:                 1

  Performing in-core PK
  Using 53592 doubles for integral storage.
  We computed 3081 shell quartets total.
  Whereas there are 3081 unique shell quartets.

  ==> DiskJK: Disk-Based J/K Matrices <==

    J tasked:                  Yes
    K tasked:                  Yes
    wK tasked:                  No
    Memory [MiB]:              662
    Schwarz Cutoff:          1E-12

    OpenMP threads:              1

  Cached 100.0% of DFT collocation blocks in 0.052 [GiB].

  Minimum eigenvalue in the overlap matrix is 2.2361776408E-02.
  Using Symmetric Orthogonalization.

  SCF Guess: Superposition of Atomic Densities via on-the-fly atomic UHF.

  ==> Iterations <==

                        Total Energy        Delta E     RMS |[F,P]|

   @RKS iter SAD:   -56.20328061416427   -5.62033e+01   0.00000e+00 
   @RKS iter   1:   -56.34287884887119   -1.39598e-01   3.31247e-02 DIIS
   @RKS iter   2:   -56.18385849904306    1.59020e-01   4.20949e-02 DIIS
   @RKS iter   3:   -56.54769629188414   -3.63838e-01   1.04299e-03 DIIS
   @RKS iter   4:   -56.54794068149906   -2.44390e-04   1.39572e-04 DIIS
   @RKS iter   5:   -56.54794406198324   -3.38048e-06   2.52860e-05 DIIS
   @RKS iter   6:   -56.54794417957675   -1.17594e-07   1.08903e-06 DIIS
   @RKS iter   7:   -56.54794417986933   -2.92587e-10   5.30433e-08 DIIS
   @RKS iter   8:   -56.54794417987050   -1.16529e-12   1.08218e-08 DIIS
   @RKS iter   9:   -56.54794417987048    2.13163e-14   2.58460e-09 DIIS
  Energy and wave function converged.


  ==> Post-Iterations <==

    Orbital Energies [Eh]
    ---------------------

    Doubly Occupied:                                                      

       1A    -14.305740     2A     -0.845347     3A     -0.452953  
       4A     -0.452086     5A     -0.252090  

    Virtual:                                                              

       6A      0.078810     7A      0.167753     8A      0.168346  
       9A      0.683153    10A      0.683606    11A      0.721900  
      12A      0.915038    13A      0.916231    14A      0.922425  
      15A      1.154926    16A      1.675307    17A      1.675547  
      18A      1.942565    19A      2.402629    20A      2.404884  
      21A      3.668937  

    Final Occupation by Irrep:
              A 
    DOCC [     5 ]

  @RKS Final Energy:   -56.54794417987048

   => Energetics <=

    Nuclear Repulsion Energy =             11.8840135614087146
    One-Electron Energy =                 -99.5774307854369596
    Two-Electron Energy =                  37.6434913579384300
    DFT Exchange-Correlation Energy =      -6.4980183137806566
    Empirical Dispersion Energy =           0.0000000000000000
    VV10 Nonlocal Energy =                  0.0000000000000000
    Total Energy =                        -56.5479441798704769

Computation Completed


Properties will be evaluated at   0.000000,   0.000000,   0.000000 [a0]

Properties computed using the SCF density matrix

  Nuclear Dipole Moment: [e a0]
     X:     0.7010      Y:     0.4692      Z:     0.3573

  Electronic Dipole Moment: [e a0]
     X:    -0.1280      Y:    -0.0831      Z:    -0.0651

  Dipole Moment: [e a0]
     X:     0.5730      Y:     0.3861      Z:     0.2922     Total:     0.7502

  Dipole Moment: [D]
     X:     1.4565      Y:     0.9814      Z:     0.7426     Total:     1.9069


*** tstop() called on blueslogin2 at Fri Aug 23 15:30:01 2019
Module time:
	user time   =       2.81 seconds =       0.05 minutes
	system time =       0.09 seconds =       0.00 minutes
	total time  =          3 seconds =       0.05 minutes
Total time:
	user time   =      19.81 seconds =       0.33 minutes
	system time =       1.00 seconds =       0.02 minutes
	total time  =         22 seconds =       0.37 minutes

*** tstart() called on blueslogin2
*** at Fri Aug 23 15:30:01 2019


         ------------------------------------------------------------
                                   SCF GRAD                          
                          Rob Parrish, Justin Turney,                
                       Andy Simmonett, and Alex Sokolov              
         ------------------------------------------------------------

  ==> Geometry <==

    Molecular point group: c1
    Full point group: C1

    Geometry (in Angstrom), charge = 0, multiplicity = 1:

       Center              X                  Y                   Z               Mass       
    ------------   -----------------  -----------------  -----------------  -----------------
         N           -0.053809112851    -0.036017240551    -0.027421914206    14.003074004430
         H           -0.053668173389    -0.037445568332     0.991700085794     1.007825032230
         H           -0.054460359925     0.942541186149    -0.305650815792     1.007825032230
         H            0.855771194760    -0.404659461993    -0.305039589070     1.007825032230

  Nuclear repulsion =   11.884013561408715

  ==> Basis Set <==

  Basis Set: 6-31G*
    Blend: 6-31G*
    Number of shells: 12
    Number of basis function: 21
    Number of Cartesian functions: 21
    Spherical Harmonics?: false
    Max angular momentum: 2

  ==> DirectJKGrad: Integral-Direct SCF Gradients <==

    Gradient:                    1
    J tasked:                  Yes
    K tasked:                  Yes
    wK tasked:                  No
    Integrals threads:           1
    Schwarz Cutoff:          0E+00

  ==> DFT Potential <==

   => Composite Functional: B3LYP <= 

    B3LYP Hyb-GGA Exchange-Correlation Functional

    P. J. Stephens, F. J. Devlin, C. F. Chabalowski, and M. J. Frisch, J. Phys. Chem. 98, 11623 (1994)

    Deriv               =              1
    GGA                 =           TRUE
    Meta                =          FALSE

    Exchange Hybrid     =           TRUE
    MP2 Hybrid          =          FALSE

   => Exchange Functionals <=

    0.0800   Slater exchange
    0.7200         Becke 88

   => Exact (HF) Exchange <=

    0.2000               HF 

   => Correlation Functionals <=

    0.1900   Vosko, Wilk & Nusair (VWN5_RPA)
    0.8100   Lee, Yang & Parr

   => Molecular Quadrature <=

    Radial Scheme          =       TREUTLER
    Pruning Scheme         =           FLAT
    Nuclear Scheme         =       TREUTLER

    BS radius alpha        =              1
    Pruning alpha          =              1
    Radial Points          =             75
    Spherical Points       =            302
    Total Points           =          87804
    Total Blocks           =            715
    Max Points             =            256
    Max Functions          =             21


  -Total Gradient:
     Atom            X                  Y                   Z
    ------   -----------------  -----------------  -----------------
       1       -0.000378760654     0.002099219396    -0.000086420589
       2        0.000039380800    -0.000213831121    -0.000147751581
       3       -0.000111523181    -0.001590344015     0.000293434254
       4        0.000451608355    -0.000303183539    -0.000059598126


*** tstop() called on blueslogin2 at Fri Aug 23 15:30:02 2019
Module time:
	user time   =       0.44 seconds =       0.01 minutes
	system time =       0.01 seconds =       0.00 minutes
	total time  =          1 seconds =       0.02 minutes
Total time:
	user time   =      20.26 seconds =       0.34 minutes
	system time =       1.01 seconds =       0.02 minutes
	total time  =         23 seconds =       0.38 minutes

  //>>>>>>>>>>>>>>>>>>>>>>>>>>>>>>>>>>>//
  //    Loading displacement 6 of 13   //
  //<<<<<<<<<<<<<<<<<<<<<<<<<<<<<<<<<<<//
gradient() will perform analytic gradient computation.

*** tstart() called on blueslogin2
*** at Fri Aug 23 15:30:02 2019

   => Loading Basis Set <=

    Name: 6-31G*
    Role: ORBITAL
    Keyword: BASIS
    atoms 1   entry N          line   128 file /home/elliott/miniconda2/envs/pacc-env-mini/share/psi4/basis/6-31gs.gbs 
    atoms 2-4 entry H          line    44 file /home/elliott/miniconda2/envs/pacc-env-mini/share/psi4/basis/6-31gs.gbs 


         ---------------------------------------------------------
                                   SCF
               by Justin Turney, Rob Parrish, Andy Simmonett
                          and Daniel G. A. Smith
                              RKS Reference
                        1 Threads,    953 MiB Core
         ---------------------------------------------------------

  ==> Geometry <==

    Molecular point group: c1
    Full point group: C1

    Geometry (in Angstrom), charge = 0, multiplicity = 1:

       Center              X                  Y                   Z               Mass       
    ------------   -----------------  -----------------  -----------------  -----------------
         N           -0.053809112851    -0.036287752435    -0.027701241126    14.003074004430
         H           -0.053074937022    -0.035792632048     0.993296241622     1.007825032230
         H           -0.054176202481     0.943985686214    -0.304212242417     1.007825032230
         H            0.854893800949    -0.403998311473    -0.304193252203     1.007825032230

  Running in c1 symmetry.

  Rotational constants: A =      9.77402  B =      9.77387  C =      6.32753 [cm^-1]
  Rotational constants: A = 293017.61118  B = 293013.16482  C = 189694.60018 [MHz]
  Nuclear repulsion =   11.878195670361091

  Charge       = 0
  Multiplicity = 1
  Electrons    = 10
  Nalpha       = 5
  Nbeta        = 5

  ==> Algorithm <==

  SCF Algorithm Type is PK.
  DIIS enabled.
  MOM disabled.
  Fractional occupation disabled.
  Guess Type is SAD.
  Energy threshold   = 1.00e-08
  Density threshold  = 1.00e-08
  Integral threshold = 0.00e+00

  ==> Primary Basis <==

  Basis Set: 6-31G*
    Blend: 6-31G*
    Number of shells: 12
    Number of basis function: 21
    Number of Cartesian functions: 21
    Spherical Harmonics?: false
    Max angular momentum: 2

  ==> DFT Potential <==

   => Composite Functional: B3LYP <= 

    B3LYP Hyb-GGA Exchange-Correlation Functional

    P. J. Stephens, F. J. Devlin, C. F. Chabalowski, and M. J. Frisch, J. Phys. Chem. 98, 11623 (1994)

    Deriv               =              1
    GGA                 =           TRUE
    Meta                =          FALSE

    Exchange Hybrid     =           TRUE
    MP2 Hybrid          =          FALSE

   => Exchange Functionals <=

    0.0800   Slater exchange
    0.7200         Becke 88

   => Exact (HF) Exchange <=

    0.2000               HF 

   => Correlation Functionals <=

    0.1900   Vosko, Wilk & Nusair (VWN5_RPA)
    0.8100   Lee, Yang & Parr

   => Molecular Quadrature <=

    Radial Scheme          =       TREUTLER
    Pruning Scheme         =           FLAT
    Nuclear Scheme         =       TREUTLER

    BS radius alpha        =              1
    Pruning alpha          =              1
    Radial Points          =             75
    Spherical Points       =            302
    Total Points           =          87808
    Total Blocks           =            715
    Max Points             =            256
    Max Functions          =             21

  ==> Pre-Iterations <==

   -------------------------------------------------------
    Irrep   Nso     Nmo     Nalpha   Nbeta   Ndocc  Nsocc
   -------------------------------------------------------
     A         21      21       0       0       0       0
   -------------------------------------------------------
    Total      21      21       5       5       5       0
   -------------------------------------------------------

  ==> Integral Setup <==

  Using in-core PK algorithm.
   Calculation information:
      Number of atoms:                   4
      Number of AO shells:              12
      Number of primitives:             27
      Number of atomic orbitals:        21
      Number of basis functions:        21

      Integral cutoff                 1.00e-12
      Number of threads:                 1

  Performing in-core PK
  Using 53592 doubles for integral storage.
  We computed 3081 shell quartets total.
  Whereas there are 3081 unique shell quartets.

  ==> DiskJK: Disk-Based J/K Matrices <==

    J tasked:                  Yes
    K tasked:                  Yes
    wK tasked:                  No
    Memory [MiB]:              662
    Schwarz Cutoff:          1E-12

    OpenMP threads:              1

  Cached 100.0% of DFT collocation blocks in 0.052 [GiB].

  Minimum eigenvalue in the overlap matrix is 2.2373546006E-02.
  Using Symmetric Orthogonalization.

  SCF Guess: Superposition of Atomic Densities via on-the-fly atomic UHF.

  ==> Iterations <==

                        Total Energy        Delta E     RMS |[F,P]|

   @RKS iter SAD:   -56.20281334637794   -5.62028e+01   0.00000e+00 
   @RKS iter   1:   -56.34297689612628   -1.40164e-01   3.31117e-02 DIIS
   @RKS iter   2:   -56.18350073226146    1.59476e-01   4.21041e-02 DIIS
   @RKS iter   3:   -56.54769493417980   -3.64194e-01   1.04607e-03 DIIS
   @RKS iter   4:   -56.54794082925065   -2.45895e-04   1.39578e-04 DIIS
   @RKS iter   5:   -56.54794421078607   -3.38154e-06   2.53207e-05 DIIS
   @RKS iter   6:   -56.54794432879176   -1.18006e-07   1.09003e-06 DIIS
   @RKS iter   7:   -56.54794432908631   -2.94548e-10   5.37867e-08 DIIS
   @RKS iter   8:   -56.54794432908760   -1.28608e-12   1.13158e-08 DIIS
   @RKS iter   9:   -56.54794432908767   -7.10543e-14   2.69736e-09 DIIS
  Energy and wave function converged.


  ==> Post-Iterations <==

    Orbital Energies [Eh]
    ---------------------
[...]
      Number of atomic orbitals:        21
      Number of basis functions:        21

      Integral cutoff                 1.00e-12
      Number of threads:                 1

  Performing in-core PK
  Using 53592 doubles for integral storage.
  We computed 3081 shell quartets total.
  Whereas there are 3081 unique shell quartets.

  ==> DiskJK: Disk-Based J/K Matrices <==

    J tasked:                  Yes
    K tasked:                  Yes
    wK tasked:                  No
    Memory [MiB]:              662
    Schwarz Cutoff:          1E-12

    OpenMP threads:              1

  Cached 100.0% of DFT collocation blocks in 0.052 [GiB].

  Minimum eigenvalue in the overlap matrix is 2.2314961716E-02.
  Using Symmetric Orthogonalization.

  SCF Guess: Superposition of Atomic Densities via on-the-fly atomic UHF.

  ==> Iterations <==

                        Total Energy        Delta E     RMS |[F,P]|

   @RKS iter SAD:   -56.20412975702990   -5.62041e+01   0.00000e+00 
   @RKS iter   1:   -56.34275979828376   -1.38630e-01   3.31380e-02 DIIS
   @RKS iter   2:   -56.18406855823692    1.58691e-01   4.20903e-02 DIIS
   @RKS iter   3:   -56.54769586688677   -3.63627e-01   1.04065e-03 DIIS
   @RKS iter   4:   -56.54793927243221   -2.43406e-04   1.39129e-04 DIIS
   @RKS iter   5:   -56.54794262915978   -3.35673e-06   2.52714e-05 DIIS
   @RKS iter   6:   -56.54794274655534   -1.17396e-07   1.08994e-06 DIIS
   @RKS iter   7:   -56.54794274684725   -2.91912e-10   5.15453e-08 DIIS
   @RKS iter   8:   -56.54794274684831   -1.05871e-12   9.04945e-09 DIIS
  Energy and wave function converged.


  ==> Post-Iterations <==

    Orbital Energies [Eh]
    ---------------------

    Doubly Occupied:                                                      

       1A    -14.305605     2A     -0.845785     3A     -0.452697  
       4A     -0.452576     5A     -0.252314  

    Virtual:                                                              

       6A      0.078946     7A      0.168082     8A      0.168375  
       9A      0.682660    10A      0.683440    11A      0.721905  
      12A      0.915784    13A      0.916424    14A      0.923791  
      15A      1.155925    16A      1.675038    17A      1.675300  
      18A      1.941802    19A      2.404041    20A      2.405612  
      21A      3.669217  

    Final Occupation by Irrep:
              A 
    DOCC [     5 ]

  @RKS Final Energy:   -56.54794274684831

   => Energetics <=

    Nuclear Repulsion Energy =             11.8923588400947597
    One-Electron Energy =                 -99.5921142939172199
    Two-Electron Energy =                  37.6505266051448757
    DFT Exchange-Correlation Energy =      -6.4987138981707222
    Empirical Dispersion Energy =           0.0000000000000000
    VV10 Nonlocal Energy =                  0.0000000000000000
    Total Energy =                        -56.5479427468483067

Computation Completed


Properties will be evaluated at   0.000000,   0.000000,   0.000000 [a0]

Properties computed using the SCF density matrix

  Nuclear Dipole Moment: [e a0]
     X:     0.7010      Y:     0.4728      Z:     0.3574

  Electronic Dipole Moment: [e a0]
     X:    -0.1269      Y:    -0.0856      Z:    -0.0651

  Dipole Moment: [e a0]
     X:     0.5742      Y:     0.3872      Z:     0.2923     Total:     0.7517

  Dipole Moment: [D]
     X:     1.4594      Y:     0.9842      Z:     0.7430     Total:     1.9106


*** tstop() called on blueslogin2 at Fri Aug 23 15:30:27 2019
Module time:
	user time   =       2.58 seconds =       0.04 minutes
	system time =       0.06 seconds =       0.00 minutes
	total time  =          3 seconds =       0.05 minutes
Total time:
	user time   =      44.74 seconds =       0.75 minutes
	system time =       1.60 seconds =       0.03 minutes
	total time  =         48 seconds =       0.80 minutes

*** tstart() called on blueslogin2
*** at Fri Aug 23 15:30:27 2019


         ------------------------------------------------------------
                                   SCF GRAD                          
                          Rob Parrish, Justin Turney,                
                       Andy Simmonett, and Alex Sokolov              
         ------------------------------------------------------------

  ==> Geometry <==

    Molecular point group: c1
    Full point group: C1

    Geometry (in Angstrom), charge = 0, multiplicity = 1:

       Center              X                  Y                   Z               Mass       
    ------------   -----------------  -----------------  -----------------  -----------------
         N           -0.053809112851    -0.036287752435    -0.027434674474    14.003074004430
         H           -0.053809112851    -0.036287752435     0.991687325526     1.007825032230
         H           -0.052767098325     0.942688131228    -0.305259652696     1.007825032230
         H            0.854218872623    -0.402205636098    -0.305240696253     1.007825032230

  Nuclear repulsion =   11.892358840094760

  ==> Basis Set <==

  Basis Set: 6-31G*
    Blend: 6-31G*
    Number of shells: 12
    Number of basis function: 21
    Number of Cartesian functions: 21
    Spherical Harmonics?: false
    Max angular momentum: 2

  ==> DirectJKGrad: Integral-Direct SCF Gradients <==

    Gradient:                    1
    J tasked:                  Yes
    K tasked:                  Yes
    wK tasked:                  No
    Integrals threads:           1
    Schwarz Cutoff:          0E+00

  ==> DFT Potential <==

   => Composite Functional: B3LYP <= 

    B3LYP Hyb-GGA Exchange-Correlation Functional

    P. J. Stephens, F. J. Devlin, C. F. Chabalowski, and M. J. Frisch, J. Phys. Chem. 98, 11623 (1994)

    Deriv               =              1
    GGA                 =           TRUE
    Meta                =          FALSE

    Exchange Hybrid     =           TRUE
    MP2 Hybrid          =          FALSE

   => Exchange Functionals <=

    0.0800   Slater exchange
    0.7200         Becke 88

   => Exact (HF) Exchange <=

    0.2000               HF 

   => Correlation Functionals <=

    0.1900   Vosko, Wilk & Nusair (VWN5_RPA)
    0.8100   Lee, Yang & Parr

   => Molecular Quadrature <=

    Radial Scheme          =       TREUTLER
    Pruning Scheme         =           FLAT
    Nuclear Scheme         =       TREUTLER

    BS radius alpha        =              1
    Pruning alpha          =              1
    Radial Points          =             75
    Spherical Points       =            302
    Total Points           =          87796
    Total Blocks           =            714
    Max Points             =            256
    Max Functions          =             21


  -Total Gradient:
     Atom            X                  Y                   Z
    ------   -----------------  -----------------  -----------------
       1        0.001145569388     0.000776499841    -0.000388209104
       2       -0.000046661666    -0.000033161058    -0.000169005999
       3        0.000193765505    -0.001469608005     0.000280931134
       4       -0.001287882968     0.000729572462     0.000282029790


*** tstop() called on blueslogin2 at Fri Aug 23 15:30:27 2019
Module time:
	user time   =       0.45 seconds =       0.01 minutes
	system time =       0.00 seconds =       0.00 minutes
	total time  =          0 seconds =       0.00 minutes
Total time:
	user time   =      45.20 seconds =       0.75 minutes
	system time =       1.60 seconds =       0.03 minutes
	total time  =         48 seconds =       0.80 minutes

         ----------------------------------------------------------
                                   FINDIF
                     R. A. King and Jonathon Misiewicz
         ---------------------------------------------------------

  Computing second-derivative from gradients using projected, 
  symmetry-adapted, cartesian coordinates.

  13 gradients passed in, including the reference geometry.
  Generating complete list of displacements from unique ones.


-------------------------------------------------------------


  ==> Harmonic Vibrational Analysis <==

  non-mass-weighted Hessian:       Symmetric? True   Hermitian? True   Lin Dep Dim?  6 (0)
  projection of translations (True) and rotations (True) removed 6 degrees of freedom (6)
  total projector:                 Symmetric? True   Hermitian? True   Lin Dep Dim?  6 (6)
  mass-weighted Hessian:           Symmetric? True   Hermitian? True   Lin Dep Dim?  6 (0)
  pre-proj  low-frequency mode:    0.0000i [cm^-1]
  pre-proj  low-frequency mode:    0.0000i [cm^-1]
  pre-proj  low-frequency mode:    0.0000i [cm^-1]
  pre-proj  low-frequency mode:    0.0000i [cm^-1]
  pre-proj  low-frequency mode:    0.0000  [cm^-1]
  pre-proj  low-frequency mode:    0.0000  [cm^-1]
  pre-proj  all modes:['0.0001i' '0.0000i' '0.0000i' '0.0000i' '0.0000' '0.0000' '1127.8372'
 '1726.1820' '1726.2058' '3439.8132' '3571.9171' '3571.9510']
  projected mass-weighted Hessian: Symmetric? True   Hermitian? True   Lin Dep Dim?  6 (6)
  post-proj low-frequency mode:    0.0000i [cm^-1] (TR)
  post-proj low-frequency mode:    0.0000i [cm^-1] (TR)
  post-proj low-frequency mode:    0.0000  [cm^-1] (TR)
  post-proj low-frequency mode:    0.0000  [cm^-1] (TR)
  post-proj low-frequency mode:    0.0000  [cm^-1] (TR)
  post-proj low-frequency mode:    0.0000  [cm^-1] (TR)
  post-proj  all modes:['0.0000i' '0.0000i' '0.0000' '0.0000' '0.0000' '0.0000' '1127.8372'
 '1726.1820' '1726.2058' '3439.8132' '3571.9171' '3571.9510']

  Vibration                       7                   8                   9           
  Freq [cm^-1]                1127.8372           1726.1820           1726.2058       
  Irrep                           A                   A                   A           
  Reduced mass [u]              1.1798              1.0643              1.0643        
  Force const [mDyne/A]         0.8842              1.8685              1.8686        
  Turning point v=0 [a0]        0.3008              0.2560              0.2560        
  RMS dev v=0 [a0 u^1/2]        0.2310              0.1867              0.1867        
  Char temp [K]               1622.7066           2483.5916           2483.6258       
  ----------------------------------------------------------------------------------
      1   N               -0.09 -0.06 -0.04    0.04 -0.04 -0.03   -0.00  0.04 -0.05   
      2   H                0.48  0.32  0.01   -0.22  0.62 -0.02    0.44 -0.20 -0.03   
      3   H                0.48  0.10  0.31   -0.27  0.16  0.62   -0.41  0.07  0.12   
      4   H                0.27  0.40  0.31   -0.10 -0.25 -0.14    0.01 -0.45  0.61   

  Vibration                       10                  11                  12          
  Freq [cm^-1]                3439.8132           3571.9171           3571.9510       
  Irrep                           A                   A                   A           
  Reduced mass [u]              1.0273              1.0887              1.0887        
  Force const [mDyne/A]         7.1620              8.1839              8.1840        
  Turning point v=0 [a0]        0.1846              0.1760              0.1760        
  RMS dev v=0 [a0 u^1/2]        0.1323              0.1298              0.1298        
  Char temp [K]               4949.1254           5139.1935           5139.2422       
  ----------------------------------------------------------------------------------
      1   N               -0.03 -0.02 -0.02   -0.05  0.06  0.02    0.01  0.03 -0.07   
      2   H               -0.04 -0.03  0.57   -0.01  0.02 -0.19   -0.01 -0.00  0.79   
      3   H               -0.04  0.55 -0.18   -0.00 -0.56  0.18    0.01 -0.54  0.14   
      4   H                0.49 -0.24 -0.18    0.69 -0.28 -0.22   -0.20  0.10  0.05   

  ==> Thermochemistry Components <==

  Entropy, S
    Electronic S            0.000 [cal/(mol K)]        0.000 [J/(mol K)]       0.00000000 [mEh/K] (multiplicity = 1)
    Translational S        34.441 [cal/(mol K)]      144.100 [J/(mol K)]       0.05488488 [mEh/K] (mol. weight = 17.0265 [u], P = 101325.00 [Pa])
    Rotational S           13.653 [cal/(mol K)]       57.122 [J/(mol K)]       0.02175669 [mEh/K] (symmetry no. = 1)
    Vibrational S           0.065 [cal/(mol K)]        0.270 [J/(mol K)]       0.00010292 [mEh/K]
  Total S                  48.158 [cal/(mol K)]      201.493 [J/(mol K)]       0.07674450 [mEh/K]
  Correction S              0.000 [cal/(mol K)]        0.000 [J/(mol K)]       0.00000000 [mEh/K]

  Constant volume heat capacity, Cv
    Electronic Cv           0.000 [cal/(mol K)]        0.000 [J/(mol K)]       0.00000000 [mEh/K]
    Translational Cv        2.981 [cal/(mol K)]       12.472 [J/(mol K)]       0.00475022 [mEh/K]
    Rotational Cv           2.981 [cal/(mol K)]       12.472 [J/(mol K)]       0.00475022 [mEh/K]
    Vibrational Cv          0.324 [cal/(mol K)]        1.354 [J/(mol K)]       0.00051571 [mEh/K]
  Total Cv                  6.285 [cal/(mol K)]       26.297 [J/(mol K)]       0.01001614 [mEh/K]
  Correction Cv             0.000 [cal/(mol K)]        0.000 [J/(mol K)]       0.00000000 [mEh/K]

  Constant pressure heat capacity, Cp
    Electronic Cp           0.000 [cal/(mol K)]        0.000 [J/(mol K)]       0.00000000 [mEh/K]
    Translational Cp        4.968 [cal/(mol K)]       20.786 [J/(mol K)]       0.00791703 [mEh/K]
    Rotational Cp           2.981 [cal/(mol K)]       12.472 [J/(mol K)]       0.00475022 [mEh/K]
    Vibrational Cp          0.324 [cal/(mol K)]        1.354 [J/(mol K)]       0.00051571 [mEh/K]
  Total Cp                  8.272 [cal/(mol K)]       34.612 [J/(mol K)]       0.01318295 [mEh/K]
  Correction Cp             0.000 [cal/(mol K)]        0.000 [J/(mol K)]       0.00000000 [mEh/K]

  ==> Thermochemistry Energy Analysis <==

  Raw electronic energy, E0
  Total E0, Electronic energy at well bottom at 0 [K]                  -56.54794764 [Eh]

  Zero-point energy, ZPE_vib = Sum_i nu_i / 2
    Electronic ZPE          0.000 [kcal/mol]        0.000 [kJ/mol]       0.00000000 [Eh]
    Translational ZPE       0.000 [kcal/mol]        0.000 [kJ/mol]       0.00000000 [Eh]
    Rotational ZPE          0.000 [kcal/mol]        0.000 [kJ/mol]       0.00000000 [Eh]
    Vibrational ZPE        21.678 [kcal/mol]       90.700 [kJ/mol]       0.03454592 [Eh]        7581.953 [cm^-1]
  Correction ZPE           21.678 [kcal/mol]       90.700 [kJ/mol]       0.03454592 [Eh]        7581.953 [cm^-1]
  Total ZPE, Electronic energy at 0 [K]                                -56.51340172 [Eh]

  Thermal Energy, E (includes ZPE)
    Electronic E            0.000 [kcal/mol]        0.000 [kJ/mol]       0.00000000 [Eh]
    Translational E         0.889 [kcal/mol]        3.718 [kJ/mol]       0.00141628 [Eh]
    Rotational E            0.889 [kcal/mol]        3.718 [kJ/mol]       0.00141628 [Eh]
    Vibrational E          21.694 [kcal/mol]       90.769 [kJ/mol]       0.03457206 [Eh]
  Correction E             23.472 [kcal/mol]       98.206 [kJ/mol]       0.03740461 [Eh]
  Total E, Electronic energy at  298.15 [K]                            -56.51054303 [Eh]

  Enthalpy, H_trans = E_trans + k_B * T
    Electronic H            0.000 [kcal/mol]        0.000 [kJ/mol]       0.00000000 [Eh]
    Translational H         1.481 [kcal/mol]        6.197 [kJ/mol]       0.00236046 [Eh]
    Rotational H            0.889 [kcal/mol]        3.718 [kJ/mol]       0.00141628 [Eh]
    Vibrational H          21.694 [kcal/mol]       90.769 [kJ/mol]       0.03457206 [Eh]
  Correction H             24.064 [kcal/mol]      100.685 [kJ/mol]       0.03834879 [Eh]
  Total H, Enthalpy at  298.15 [K]                                     -56.50959885 [Eh]

  Gibbs free energy, G = H - T * S
    Electronic G            0.000 [kcal/mol]        0.000 [kJ/mol]       0.00000000 [Eh]
    Translational G        -8.787 [kcal/mol]      -36.766 [kJ/mol]      -0.01400347 [Eh]
    Rotational G           -3.182 [kcal/mol]      -13.313 [kJ/mol]      -0.00507048 [Eh]
    Vibrational G          21.675 [kcal/mol]       90.688 [kJ/mol]       0.03454137 [Eh]
  Correction G              9.706 [kcal/mol]       40.610 [kJ/mol]       0.01546742 [Eh]
  Total G, Free enthalpy at  298.15 [K]                                -56.53248022 [Eh]
  ## Hessian (Symmetry 0) ##
  Irrep: 1 Size: 12 x 12

                 1                   2                   3                   4                   5

    1     0.39982274061860    -0.15623005265140    -0.11812176462333    -0.03009657822982     0.02279506896311
    2    -0.15623005265140     0.52612914150150    -0.07966727126333     0.02279569297113    -0.04852538983811
    3    -0.11812176462333    -0.07966727126333     0.57127342026031    -0.02755283552323    -0.01858112589344
    4    -0.03009657822982     0.02279569297113    -0.02755283552323     0.03596799285971    -0.01764234023819
    5     0.02279506896311    -0.04852538983811    -0.01858112589344    -0.01764234023819     0.05022938902603
    6     0.02329012579203     0.01570351360756    -0.42045669007813    -0.01347076953533    -0.00908307299014
    7    -0.03009964225795    -0.02029855079490     0.02944560968324    -0.00287647835699    -0.00193966584717
    8     0.02861703937110    -0.39356807585635     0.11347034361899    -0.00326139813382    -0.00091065943204
    9     0.01558511968201     0.07918468436191    -0.07541050373207    -0.00109299947677     0.04586763894695
   10    -0.33962652013083     0.15373291047517     0.11622899046332    -0.00299493627290    -0.00321306287776
   11     0.10481794431719    -0.08403567580704    -0.01522194646222    -0.00189195459912    -0.00079333975588
   12     0.07924651914929    -0.01522092670614    -0.07540622645011     0.04211660453533    -0.01820344006338

                 6                   7                   8                   9                  10

    1     0.02329012579203    -0.03009964225795     0.02861703937110     0.01558511968201    -0.33962652013083
    2     0.01570351360756    -0.02029855079490    -0.39356807585635     0.07918468436191     0.15373291047517
    3    -0.42045669007813     0.02944560968324     0.11347034361899    -0.07541050373207     0.11622899046332
    4    -0.01347076953533    -0.00287647835699    -0.00326139813382    -0.00109299947677    -0.00299493627290
    5    -0.00908307299014    -0.00193966584717    -0.00091065943204     0.04586763894695    -0.00321306287776
    6     0.44465714648953    -0.00284116036502    -0.00637668754524    -0.01209970781770    -0.00697819589168
    7    -0.00284116036502     0.03596986562999    -0.01776893257840    -0.01330170039115    -0.00299374501505
    8    -0.00637668754524    -0.01776893257840     0.41057758006028    -0.11118632692456    -0.00758670865888
    9    -0.01209970781770    -0.01330170039115    -0.11118632692456     0.08430655191380    -0.00119041981409
   10    -0.00697819589168    -0.00299374501505    -0.00758670865888    -0.00119041981409     0.34561520141878
   11    -0.00024375307218     0.04000714922046    -0.01609884477189    -0.01386599638431    -0.14293313893854
   12    -0.01210074859371    -0.01330274892707     0.00409267085081     0.00320365963597    -0.10806037475755

                11                  12

    1     0.10481794431719     0.07924651914929
    2    -0.08403567580704    -0.01522092670614
    3    -0.01522194646222    -0.07540622645011
    4    -0.00189195459912     0.04211660453533
    5    -0.00079333975588    -0.01820344006338
    6    -0.00024375307218    -0.01210074859371
    7     0.04000714922046    -0.01330274892707
    8    -0.01609884477189     0.00409267085081
    9    -0.01386599638431     0.00320365963597
   10    -0.14293313893854    -0.10806037475755
   11     0.10092786033481     0.02933169591871
   12     0.02933169591871     0.08430331540785




    Psi4 stopped on: Friday, 23 August 2019 03:30PM
    Psi4 wall time for execution: 0:00:48.60

*** Psi4 exiting successfully. Buy a developer a beer!
