 Entering Gaussian System, Link 0=g09
 Input=run.inp
 Output=run.out
 Initial command:
 /soft/gaussian/09-e.01/g09/l1.exe "/blues/gpfs/home/elliott/Packages/PACC/moldriver/rcdriver/tmprundir/RXN/CH3.H2/MDUSDFXREFXETQ/0_0/2_1/UHFFFAOYSA-N/CH4.H/HXBDELFRWIQQII/0_0/1_2/UHFFFAOYSA-N/2/ezvlpJU/SCANS/R6/06/RUN/OPTI/A00/Gau-161920.inp" -scrdir="/blues/gpfs/home/elliott/Packages/PACC/moldriver/rcdriver/tmprundir/RXN/CH3.H2/MDUSDFXREFXETQ/0_0/2_1/UHFFFAOYSA-N/CH4.H/HXBDELFRWIQQII/0_0/1_2/UHFFFAOYSA-N/2/ezvlpJU/SCANS/R6/06/RUN/OPTI/A00/"
 Entering Link 1 = /soft/gaussian/09-e.01/g09/l1.exe PID=    161921.
  
 Copyright (c) 1988,1990,1992,1993,1995,1998,2003,2009,2015,
            Gaussian, Inc.  All Rights Reserved.
  
 This is part of the Gaussian(R) 09 program.  It is based on
 the Gaussian(R) 03 system (copyright 2003, Gaussian, Inc.),
 the Gaussian(R) 98 system (copyright 1998, Gaussian, Inc.),
 the Gaussian(R) 94 system (copyright 1995, Gaussian, Inc.),
 the Gaussian 92(TM) system (copyright 1992, Gaussian, Inc.),
 the Gaussian 90(TM) system (copyright 1990, Gaussian, Inc.),
 the Gaussian 88(TM) system (copyright 1988, Gaussian, Inc.),
 the Gaussian 86(TM) system (copyright 1986, Carnegie Mellon
 University), and the Gaussian 82(TM) system (copyright 1983,
 Carnegie Mellon University). Gaussian is a federally registered
 trademark of Gaussian, Inc.
  
 This software contains proprietary and confidential information,
 including trade secrets, belonging to Gaussian, Inc.
  
 This software is provided under written license and may be
 used, copied, transmitted, or stored only in accord with that
 written license.
  
 The following legend is applicable only to US Government
 contracts under FAR:
  
                    RESTRICTED RIGHTS LEGEND
  
 Use, reproduction and disclosure by the US Government is
 subject to restrictions as set forth in subparagraphs (a)
 and (c) of the Commercial Computer Software - Restricted
 Rights clause in FAR 52.227-19.
  
 Gaussian, Inc.
 340 Quinnipiac St., Bldg. 40, Wallingford CT 06492
  
  
 ---------------------------------------------------------------
 Warning -- This program may not be used in any manner that
 competes with the business of Gaussian, Inc. or will provide
 assistance to any competitor of Gaussian, Inc.  The licensee
 of this program is prohibited from giving any competitor of
 Gaussian, Inc. access to this program.  By using this program,
 the user acknowledges that Gaussian, Inc. is engaged in the
 business of creating and licensing software in the field of
 computational chemistry and represents and warrants to the
 licensee that it is not a competitor of Gaussian, Inc. and that
 it will not use this program in any manner prohibited above.
 ---------------------------------------------------------------
  

 Cite this work as:
 Gaussian 09, Revision E.01,
 M. J. Frisch, G. W. Trucks, H. B. Schlegel, G. E. Scuseria, 
 M. A. Robb, J. R. Cheeseman, G. Scalmani, V. Barone, B. Mennucci, 
 G. A. Petersson, H. Nakatsuji, M. Caricato, X. Li, H. P. Hratchian, 
 A. F. Izmaylov, J. Bloino, G. Zheng, J. L. Sonnenberg, M. Hada, 
 M. Ehara, K. Toyota, R. Fukuda, J. Hasegawa, M. Ishida, T. Nakajima, 
 Y. Honda, O. Kitao, H. Nakai, T. Vreven, J. A. Montgomery, Jr., 
 J. E. Peralta, F. Ogliaro, M. Bearpark, J. J. Heyd, E. Brothers, 
 K. N. Kudin, V. N. Staroverov, T. Keith, R. Kobayashi, J. Normand, 
 K. Raghavachari, A. Rendell, J. C. Burant, S. S. Iyengar, J. Tomasi, 
 M. Cossi, N. Rega, J. M. Millam, M. Klene, J. E. Knox, J. B. Cross, 
 V. Bakken, C. Adamo, J. Jaramillo, R. Gomperts, R. E. Stratmann, 
 O. Yazyev, A. J. Austin, R. Cammi, C. Pomelli, J. W. Ochterski, 
 R. L. Martin, K. Morokuma, V. G. Zakrzewski, G. A. Voth, 
 P. Salvador, J. J. Dannenberg, S. Dapprich, A. D. Daniels, 
 O. Farkas, J. B. Foresman, J. V. Ortiz, J. Cioslowski, 
 and D. J. Fox, Gaussian, Inc., Wallingford CT, 2013.
 
 ******************************************
 Gaussian 09:  ES64L-G09RevE.01 30-Nov-2015
                 5-Sep-2019 
 ******************************************
 %mem=20GB
 %NProcShared=10
 Will use up to   10 processors via shared memory.
 -----------------------------------------------------
 #P b3lyp/6-31g* # SCF=(xqc) # POpt=() # int=ultrafine
 -----------------------------------------------------
 1/10=7,14=-1,26=4,38=1/1,3;
 2/12=2,17=6,18=5,29=3,40=1/2;
 3/5=1,6=6,7=1,11=2,16=1,25=1,30=1,71=1,74=-5,75=-5/1,2,3;
 4//1;
 5/5=2,8=3,13=1,38=5/2,8;
 6/7=2,8=2,9=2,10=2,28=1/1;
 7/29=1/1,2,3,16;
 1/10=7,14=-1,26=4/3(2);
 2/29=3/2;
 99//99;
 2/29=3/2;
 3/5=1,6=6,7=1,11=2,16=1,25=1,30=1,71=1,74=-5,75=-5/1,2,3;
 4/5=5,16=3,69=1/1;
 5/5=2,8=3,13=1,38=5/2,8;
 7//1,2,3,16;
 1/14=-1,26=4/3(-5);
 2/29=3/2;
 6/7=2,8=2,9=2,10=2,19=2,28=1/1;
 99/9=1/99;
 Leave Link    1 at Thu Sep  5 23:08:10 2019, MaxMem=  2684354560 cpu:         0.7
 (Enter /soft/gaussian/09-e.01/g09/l101.exe)
 --------
 comment:
 --------
 Symbolic Z-matrix:
 Charge =  0 Multiplicity = 2
 C
 H                    1    R1
 H                    1    R2       2    A2
 H                    1    R3       2    A3       3    D3       0
 H                    1    R4       2    A4       3    D4       0
 X                    5    R5       1    A5       2    D5       0
 H                    5    R6       6    A6       1    D6       0
       Variables:
  R1                    1.0922                   
  R2                    1.0922                   
  A2                  109.471                    
  R3                    1.0922                   
  A3                  109.471                    
  D3                  120.                       
  R4                    1.0922                   
  A4                  109.471                    
  D4                  240.                       
  A6                   85.                       
  D6                  180.                       
       Constants:
  A5                   90.                       
  D5                  180.                       
  R5                    1.                       
  R6                    1.59714                  
 
     3 tetrahedral angles replaced.
 NAtoms=      6 NQM=        6 NQMF=       0 NMMI=      0 NMMIF=      0
                NMic=       0 NMicF=      0.
    3 tetrahedral angles replaced.
                    Isotopes and Nuclear Properties:
 (Nuclear quadrupole moments (NQMom) in fm**2, nuclear magnetic moments (NMagM)
  in nuclear magnetons)

  Atom         1           2           3           4           5           6
 IAtWgt=          12           1           1           1           1           1
 AtmWgt=  12.0000000   1.0078250   1.0078250   1.0078250   1.0078250   1.0078250
 NucSpn=           0           1           1           1           1           1
 AtZEff=   0.0000000   0.0000000   0.0000000   0.0000000   0.0000000   0.0000000
 NQMom=    0.0000000   0.0000000   0.0000000   0.0000000   0.0000000   0.0000000
 NMagM=    0.0000000   2.7928460   2.7928460   2.7928460   2.7928460   2.7928460
 AtZNuc=   6.0000000   1.0000000   1.0000000   1.0000000   1.0000000   1.0000000
 Leave Link  101 at Thu Sep  5 23:08:10 2019, MaxMem=  2684354560 cpu:         0.7
 (Enter /soft/gaussian/09-e.01/g09/l103.exe)

 GradGradGradGradGradGradGradGradGradGradGradGradGradGradGradGradGradGrad
 Berny optimization.
 Initialization pass.
                       ----------------------------
                       !    Initial Parameters    !
                       ! (Angstroms and Degrees)  !
 ----------------------                            ----------------------
 !      Name          Value   Derivative information (Atomic Units)     !
 ------------------------------------------------------------------------
 !       R1          1.0922   estimate D2E/DX2                          !
 !       R2          1.0922   estimate D2E/DX2                          !
 !       A2        109.4712   estimate D2E/DX2                          !
 !       R3          1.0922   estimate D2E/DX2                          !
 !       A3        109.4712   estimate D2E/DX2                          !
 !       D3        120.0      estimate D2E/DX2                          !
 !       R4          1.0922   estimate D2E/DX2                          !
 !       A4        109.4712   estimate D2E/DX2                          !
 !       D4        240.0      estimate D2E/DX2                          !
 !       A6         85.0      estimate D2E/DX2                          !
 !       D6        180.0      estimate D2E/DX2                          !
 !       A5         90.0      Frozen                                    !
 !       D5        180.0      Frozen                                    !
 !       R5          1.0      Frozen                                    !
 !       R6          1.5971   Frozen                                    !
 ------------------------------------------------------------------------
 Trust Radius=3.00D-01 FncErr=1.00D-07 GrdErr=1.00D-06
 Number of steps in this run=     25 maximum allowed number of steps=    100.
 GradGradGradGradGradGradGradGradGradGradGradGradGradGradGradGradGradGrad

 Leave Link  103 at Thu Sep  5 23:08:10 2019, MaxMem=  2684354560 cpu:         0.2
 (Enter /soft/gaussian/09-e.01/g09/l202.exe)
 ---------------------------------------------------------------------------------------------------
                            Z-MATRIX (ANGSTROMS AND DEGREES)
   CD    Cent   Atom    N1       Length/X        N2       Alpha/Y        N3        Beta/Z          J
 ---------------------------------------------------------------------------------------------------
      1      1  C 
      2      2  H        1   1.092201(     1)
      3      3  H        1   1.092201(     2)      2  109.471(     7)
      4      4  H        1   1.092201(     3)      2  109.471(     8)      3  120.000(    12)      0
      5      5  H        1   1.092201(     4)      2  109.471(     9)      3  240.000(    13)      0
      6         X        5   1.000000(     5)      1   90.000(    10)      2  180.000(    14)      0
      7      6  H        5   1.597143(     6)      6   85.000(    11)      1  180.000(    15)      0
 ---------------------------------------------------------------------------------------------------
                         Z-Matrix orientation:                         
 ---------------------------------------------------------------------
 Center     Atomic      Atomic             Coordinates (Angstroms)
 Number     Number       Type             X           Y           Z
 ---------------------------------------------------------------------
      1          6           0        0.000000    0.000000    0.000000
      2          1           0        0.000000    0.000000    1.092201
      3          1           0        1.029737    0.000000   -0.364067
      4          1           0       -0.514868   -0.891778   -0.364067
      5          1           0       -0.514868    0.891778   -0.364067
      6         -1           0       -0.348202    0.603103   -1.306876
      7          1           0       -1.241704    2.150694   -1.025661
 ---------------------------------------------------------------------
                    Distance matrix (angstroms):
                    1          2          3          4          5
     1  C    0.000000
     2  H    1.092201   0.000000
     3  H    1.092201   1.783557   0.000000
     4  H    1.092201   1.783557   1.783557   0.000000
     5  H    1.092201   1.783557   1.783557   1.783557   0.000000
     6  X    1.480845   2.498109   1.775201   1.775201   1.000000
     7  H    2.686875   3.263841   3.197286   3.197286   1.597143
                    6          7
     6  X    0.000000
     7  H    1.808996   0.000000
 This structure is nearly, but not quite of a higher symmetry.
 Consider Symm=Loose if the higher symmetry is desired.
 Stoichiometry    CH5(2)
 Framework group  C1[X(CH5)]
 Deg. of freedom    12
 Full point group                 C1      NOp   1
 Largest Abelian subgroup         C1      NOp   1
 Largest concise Abelian subgroup C1      NOp   1
                         Standard orientation:                         
 ---------------------------------------------------------------------
 Center     Atomic      Atomic             Coordinates (Angstroms)
 Number     Number       Type             X           Y           Z
 ---------------------------------------------------------------------
      1          6           0       -0.147163   -0.076197   -0.179445
      2          1           0       -0.518985    0.748055   -0.792031
      3          1           0       -0.990180   -0.600463    0.275934
      4          1           0        0.417289   -0.769924   -0.806374
      5          1           0        0.503223    0.317546    0.604689
      6          1           0        1.471631    0.761967    1.794455
 ---------------------------------------------------------------------
 Rotational constants (GHZ):    157.6370072     50.2794281     50.2794281
 Leave Link  202 at Thu Sep  5 23:08:10 2019, MaxMem=  2684354560 cpu:         0.2
 (Enter /soft/gaussian/09-e.01/g09/l301.exe)
 Standard basis: 6-31G(d) (6D, 7F)
 Ernie: Thresh=  0.10000D-02 Tol=  0.10000D-05 Strict=F.
 There are    25 symmetry adapted cartesian basis functions of A   symmetry.
 There are    25 symmetry adapted basis functions of A   symmetry.
    25 basis functions,    48 primitive gaussians,    25 cartesian basis functions
     6 alpha electrons        5 beta electrons
       nuclear repulsion energy        15.4144853067 Hartrees.
 IExCor=  402 DFT=T Ex+Corr=B3LYP ExCW=0 ScaHFX=  0.200000
 ScaDFX=  0.800000  0.720000  1.000000  0.810000 ScalE2=  1.000000  1.000000
 IRadAn=      5 IRanWt=     -1 IRanGd=            0 ICorTp=0 IEmpDi=  4
 NAtoms=    6 NActive=    6 NUniq=    6 SFac= 1.00D+00 NAtFMM=   60 NAOKFM=F Big=F
 Integral buffers will be    131072 words long.
 Raffenetti 2 integral format.
 Two-electron integral symmetry is turned on.
 Leave Link  301 at Thu Sep  5 23:08:10 2019, MaxMem=  2684354560 cpu:         0.7
 (Enter /soft/gaussian/09-e.01/g09/l302.exe)
 NPDir=0 NMtPBC=     1 NCelOv=     1 NCel=       1 NClECP=     1 NCelD=      1
         NCelK=      1 NCelE2=     1 NClLst=     1 CellRange=     0.0.
 One-electron integrals computed using PRISM.
 NBasis=    25 RedAO= T EigKep=  1.48D-02  NBF=    25
 NBsUse=    25 1.00D-06 EigRej= -1.00D+00 NBFU=    25
 Precomputing XC quadrature grid using
 IXCGrd= 4 IRadAn=           5 IRanWt=          -1 IRanGd=           0 AccXCQ= 0.00D+00.
 Generated NRdTot=       0 NPtTot=           0 NUsed=           0 NTot=          32
 NSgBfM=    25    25    25    25    25 MxSgAt=     6 MxSgA2=     6.
 Leave Link  302 at Thu Sep  5 23:08:11 2019, MaxMem=  2684354560 cpu:         1.6
 (Enter /soft/gaussian/09-e.01/g09/l303.exe)
 DipDrv:  MaxL=1.
 Leave Link  303 at Thu Sep  5 23:08:11 2019, MaxMem=  2684354560 cpu:         0.2
 (Enter /soft/gaussian/09-e.01/g09/l401.exe)
 ExpMin= 1.61D-01 ExpMax= 3.05D+03 ExpMxC= 4.57D+02 IAcc=3 IRadAn=         5 AccDes= 0.00D+00
 Harris functional with IExCor=  402 and IRadAn=       5 diagonalized for initial guess.
 HarFok:  IExCor=  402 AccDes= 0.00D+00 IRadAn=         5 IDoV= 1 UseB2=F ITyADJ=14
 ICtDFT=  3500011 ScaDFX=  1.000000  1.000000  1.000000  1.000000
 FoFCou: FMM=F IPFlag=           0 FMFlag=      100000 FMFlg1=           0
         NFxFlg=           0 DoJE=T BraDBF=F KetDBF=T FulRan=T
         wScrn=  0.000000 ICntrl=     500 IOpCl=  0 I1Cent=   200000004 NGrid=           0
         NMat0=    1 NMatS0=      1 NMatT0=    0 NMatD0=    1 NMtDS0=    0 NMtDT0=    0
 Petite list used in FoFCou.
 Harris En= -41.0209111536524    
 JPrj=0 DoOrth=F DoCkMO=F.
 Initial guess <Sx>= 0.0000 <Sy>= 0.0000 <Sz>= 0.5000 <S**2>= 0.7500 S= 0.5000
 Leave Link  401 at Thu Sep  5 23:08:11 2019, MaxMem=  2684354560 cpu:         2.0
 (Enter /soft/gaussian/09-e.01/g09/l502.exe)
 UHF open shell SCF:
 Using DIIS extrapolation, IDIIS=  1040.
 Integral symmetry usage will be decided dynamically.
 Keep R1 and R2 ints in memory in canonical form, NReq=976418.
 IVT=        8268 IEndB=        8268 NGot=  2684354560 MDV=  2684240343
 LenX=  2684240343 LenY=  2684239277
 Requested convergence on RMS density matrix=1.00D-08 within  64 cycles.
 Requested convergence on MAX density matrix=1.00D-06.
 Requested convergence on             energy=1.00D-06.
 No special actions if energy rises.
 FoFCou: FMM=F IPFlag=           0 FMFlag=           0 FMFlg1=           0
         NFxFlg=           0 DoJE=F BraDBF=F KetDBF=F FulRan=T
         wScrn=  0.000000 ICntrl=     600 IOpCl=  0 I1Cent=           0 NGrid=           0
         NMat0=    1 NMatS0=    325 NMatT0=    0 NMatD0=    1 NMtDS0=    0 NMtDT0=    0
 Symmetry not used in FoFCou.
 Integral accuracy reduced to 1.0D-05 until final iterations.

 Cycle   1  Pass 0  IDiag  1:
 E= -40.9190135699909    
 DIIS: error= 7.23D-02 at cycle   1 NSaved=   1.
 NSaved= 1 IEnMin= 1 EnMin= -40.9190135699909     IErMin= 1 ErrMin= 7.23D-02
 ErrMax= 7.23D-02  0.00D+00 EMaxC= 1.00D-01 BMatC= 3.49D-01 BMatP= 3.49D-01
 IDIUse=3 WtCom= 2.77D-01 WtEn= 7.23D-01
 Coeff-Com:  0.100D+01
 Coeff-En:   0.100D+01
 Coeff:      0.100D+01
 Gap=     0.491 Goal=   None    Shift=    0.000
 Gap=     0.169 Goal=   None    Shift=    0.000
 GapD=    0.169 DampG=1.000 DampE=0.500 DampFc=0.5000 IDamp=-1.
 Damping current iteration by 5.00D-01
 RMSDP=2.36D-02 MaxDP=1.61D-01              OVMax= 2.59D-01

 Cycle   2  Pass 0  IDiag  1:
 E= -40.9618933422555     Delta-E=       -0.042879772265 Rises=F Damp=T
 DIIS: error= 1.27D-02 at cycle   2 NSaved=   2.
 NSaved= 2 IEnMin= 2 EnMin= -40.9618933422555     IErMin= 2 ErrMin= 1.27D-02
 ErrMax= 1.27D-02  0.00D+00 EMaxC= 1.00D-01 BMatC= 9.37D-03 BMatP= 3.49D-01
 IDIUse=3 WtCom= 8.73D-01 WtEn= 1.27D-01
 Coeff-Com:  0.863D-01 0.914D+00
 Coeff-En:   0.142D+00 0.858D+00
 Coeff:      0.933D-01 0.907D+00
 Gap=     0.445 Goal=   None    Shift=    0.000
 Gap=     0.286 Goal=   None    Shift=    0.000
 RMSDP=3.11D-03 MaxDP=3.85D-02 DE=-4.29D-02 OVMax= 1.59D-01

 Cycle   3  Pass 0  IDiag  1:
 E= -41.0155148146360     Delta-E=       -0.053621472380 Rises=F Damp=F
 DIIS: error= 1.65D-03 at cycle   3 NSaved=   3.
 NSaved= 3 IEnMin= 3 EnMin= -41.0155148146360     IErMin= 3 ErrMin= 1.65D-03
 ErrMax= 1.65D-03  0.00D+00 EMaxC= 1.00D-01 BMatC= 8.40D-05 BMatP= 9.37D-03
 IDIUse=3 WtCom= 9.84D-01 WtEn= 1.65D-02
 Coeff-Com:  0.112D-02-0.532D-01 0.105D+01
 Coeff-En:   0.000D+00 0.000D+00 0.100D+01
 Coeff:      0.111D-02-0.523D-01 0.105D+01
 Gap=     0.417 Goal=   None    Shift=    0.000
 Gap=     0.306 Goal=   None    Shift=    0.000
 RMSDP=5.48D-04 MaxDP=6.50D-03 DE=-5.36D-02 OVMax= 1.01D-02

 Cycle   4  Pass 0  IDiag  1:
 E= -41.0155865690533     Delta-E=       -0.000071754417 Rises=F Damp=F
 DIIS: error= 3.24D-04 at cycle   4 NSaved=   4.
 NSaved= 4 IEnMin= 4 EnMin= -41.0155865690533     IErMin= 4 ErrMin= 3.24D-04
 ErrMax= 3.24D-04  0.00D+00 EMaxC= 1.00D-01 BMatC= 4.02D-06 BMatP= 8.40D-05
 IDIUse=3 WtCom= 9.97D-01 WtEn= 3.24D-03
 Coeff-Com: -0.251D-02 0.722D-02-0.202D+00 0.120D+01
 Coeff-En:   0.000D+00 0.000D+00 0.000D+00 0.100D+01
 Coeff:     -0.251D-02 0.719D-02-0.202D+00 0.120D+01
 Gap=     0.417 Goal=   None    Shift=    0.000
 Gap=     0.308 Goal=   None    Shift=    0.000
 RMSDP=1.12D-04 MaxDP=1.14D-03 DE=-7.18D-05 OVMax= 2.52D-03

 Cycle   5  Pass 0  IDiag  1:
 E= -41.0155898679961     Delta-E=       -0.000003298943 Rises=F Damp=F
 DIIS: error= 5.85D-05 at cycle   5 NSaved=   5.
 NSaved= 5 IEnMin= 5 EnMin= -41.0155898679961     IErMin= 5 ErrMin= 5.85D-05
 ErrMax= 5.85D-05  0.00D+00 EMaxC= 1.00D-01 BMatC= 2.01D-07 BMatP= 4.02D-06
 IDIUse=1 WtCom= 1.00D+00 WtEn= 0.00D+00
 Coeff-Com: -0.720D-03 0.273D-02-0.660D-01 0.218D+00 0.846D+00
 Coeff:     -0.720D-03 0.273D-02-0.660D-01 0.218D+00 0.846D+00
 Gap=     0.417 Goal=   None    Shift=    0.000
 Gap=     0.308 Goal=   None    Shift=    0.000
 RMSDP=1.27D-05 MaxDP=1.02D-04 DE=-3.30D-06 OVMax= 1.92D-04

 Cycle   6  Pass 0  IDiag  1:
 E= -41.0155899417394     Delta-E=       -0.000000073743 Rises=F Damp=F
 DIIS: error= 1.01D-05 at cycle   6 NSaved=   6.
 NSaved= 6 IEnMin= 6 EnMin= -41.0155899417394     IErMin= 6 ErrMin= 1.01D-05
 ErrMax= 1.01D-05  0.00D+00 EMaxC= 1.00D-01 BMatC= 5.89D-09 BMatP= 2.01D-07
 IDIUse=1 WtCom= 1.00D+00 WtEn= 0.00D+00
 Coeff-Com:  0.880D-04-0.398D-03 0.101D-01-0.595D-01-0.237D-02 0.105D+01
 Coeff:      0.880D-04-0.398D-03 0.101D-01-0.595D-01-0.237D-02 0.105D+01
 Gap=     0.417 Goal=   None    Shift=    0.000
 Gap=     0.308 Goal=   None    Shift=    0.000
 RMSDP=3.02D-06 MaxDP=2.71D-05 DE=-7.37D-08 OVMax= 3.64D-05

 Initial convergence to 1.0D-05 achieved.  Increase integral accuracy.
 Cycle   7  Pass 1  IDiag  1:
 E= -41.0155913414973     Delta-E=       -0.000001399758 Rises=F Damp=F
 DIIS: error= 1.98D-06 at cycle   1 NSaved=   1.
 NSaved= 1 IEnMin= 1 EnMin= -41.0155913414973     IErMin= 1 ErrMin= 1.98D-06
 ErrMax= 1.98D-06  0.00D+00 EMaxC= 1.00D-01 BMatC= 3.24D-10 BMatP= 3.24D-10
 IDIUse=1 WtCom= 1.00D+00 WtEn= 0.00D+00
 Coeff-Com:  0.100D+01
 Coeff:      0.100D+01
 Gap=     0.417 Goal=   None    Shift=    0.000
 Gap=     0.308 Goal=   None    Shift=    0.000
 RMSDP=3.02D-06 MaxDP=2.71D-05 DE=-1.40D-06 OVMax= 7.61D-06

 Cycle   8  Pass 1  IDiag  1:
 E= -41.0155913416940     Delta-E=       -0.000000000197 Rises=F Damp=F
 DIIS: error= 1.56D-06 at cycle   2 NSaved=   2.
 NSaved= 2 IEnMin= 2 EnMin= -41.0155913416940     IErMin= 2 ErrMin= 1.56D-06
 ErrMax= 1.56D-06  0.00D+00 EMaxC= 1.00D-01 BMatC= 1.14D-10 BMatP= 3.24D-10
 IDIUse=1 WtCom= 1.00D+00 WtEn= 0.00D+00
 Coeff-Com:  0.237D+00 0.763D+00
 Coeff:      0.237D+00 0.763D+00
 Gap=     0.417 Goal=   None    Shift=    0.000
 Gap=     0.308 Goal=   None    Shift=    0.000
 RMSDP=2.79D-07 MaxDP=2.80D-06 DE=-1.97D-10 OVMax= 4.77D-06

 Cycle   9  Pass 1  IDiag  1:
 E= -41.0155913417302     Delta-E=       -0.000000000036 Rises=F Damp=F
 DIIS: error= 1.02D-06 at cycle   3 NSaved=   3.
 NSaved= 3 IEnMin= 3 EnMin= -41.0155913417302     IErMin= 3 ErrMin= 1.02D-06
 ErrMax= 1.02D-06  0.00D+00 EMaxC= 1.00D-01 BMatC= 4.47D-11 BMatP= 1.14D-10
 IDIUse=1 WtCom= 1.00D+00 WtEn= 0.00D+00
 Coeff-Com: -0.203D+00 0.353D+00 0.849D+00
 Coeff:     -0.203D+00 0.353D+00 0.849D+00
 Gap=     0.417 Goal=   None    Shift=    0.000
 Gap=     0.308 Goal=   None    Shift=    0.000
 RMSDP=2.03D-07 MaxDP=1.78D-06 DE=-3.63D-11 OVMax= 2.46D-06

 Cycle  10  Pass 1  IDiag  1:
 E= -41.0155913417483     Delta-E=       -0.000000000018 Rises=F Damp=F
 DIIS: error= 1.52D-07 at cycle   4 NSaved=   4.
 NSaved= 4 IEnMin= 4 EnMin= -41.0155913417483     IErMin= 4 ErrMin= 1.52D-07
 ErrMax= 1.52D-07  0.00D+00 EMaxC= 1.00D-01 BMatC= 1.87D-12 BMatP= 4.47D-11
 IDIUse=1 WtCom= 1.00D+00 WtEn= 0.00D+00
 Coeff-Com: -0.763D-01 0.531D-02 0.152D+00 0.919D+00
 Coeff:     -0.763D-01 0.531D-02 0.152D+00 0.919D+00
 Gap=     0.417 Goal=   None    Shift=    0.000
 Gap=     0.308 Goal=   None    Shift=    0.000
 RMSDP=5.76D-08 MaxDP=4.05D-07 DE=-1.81D-11 OVMax= 7.13D-07

 Cycle  11  Pass 1  IDiag  1:
 E= -41.0155913417493     Delta-E=       -0.000000000001 Rises=F Damp=F
 DIIS: error= 3.72D-08 at cycle   5 NSaved=   5.
 NSaved= 5 IEnMin= 5 EnMin= -41.0155913417493     IErMin= 5 ErrMin= 3.72D-08
 ErrMax= 3.72D-08  0.00D+00 EMaxC= 1.00D-01 BMatC= 9.42D-14 BMatP= 1.87D-12
 IDIUse=1 WtCom= 1.00D+00 WtEn= 0.00D+00
 Coeff-Com:  0.358D-02-0.147D-01-0.506D-01 0.949D-01 0.967D+00
 Coeff:      0.358D-02-0.147D-01-0.506D-01 0.949D-01 0.967D+00
 Gap=     0.417 Goal=   None    Shift=    0.000
 Gap=     0.308 Goal=   None    Shift=    0.000
 RMSDP=1.02D-08 MaxDP=8.64D-08 DE=-1.04D-12 OVMax= 1.16D-07

 Cycle  12  Pass 1  IDiag  1:
 E= -41.0155913417494     Delta-E=       -0.000000000000 Rises=F Damp=F
 DIIS: error= 5.48D-09 at cycle   6 NSaved=   6.
 NSaved= 6 IEnMin= 6 EnMin= -41.0155913417494     IErMin= 6 ErrMin= 5.48D-09
 ErrMax= 5.48D-09  0.00D+00 EMaxC= 1.00D-01 BMatC= 9.83D-16 BMatP= 9.42D-14
 IDIUse=1 WtCom= 1.00D+00 WtEn= 0.00D+00
 Coeff-Com:  0.227D-02-0.967D-03-0.391D-02-0.217D-01 0.135D-01 0.101D+01
 Coeff:      0.227D-02-0.967D-03-0.391D-02-0.217D-01 0.135D-01 0.101D+01
 Gap=     0.417 Goal=   None    Shift=    0.000
 Gap=     0.308 Goal=   None    Shift=    0.000
 RMSDP=1.42D-09 MaxDP=1.56D-08 DE=-4.97D-14 OVMax= 2.22D-08

 SCF Done:  E(UB3LYP) =  -41.0155913417     A.U. after   12 cycles
            NFock= 12  Conv=0.14D-08     -V/T= 2.0099
 <Sx>= 0.0000 <Sy>= 0.0000 <Sz>= 0.5000 <S**2>= 0.7510 S= 0.5005
 <L.S>= 0.000000000000E+00
 KE= 4.061515397400D+01 PE=-1.248660377190D+02 EE= 2.782080709657D+01
 Annihilation of the first spin contaminant:
 S**2 before annihilation     0.7510,   after     0.7500
 Leave Link  502 at Thu Sep  5 23:08:12 2019, MaxMem=  2684354560 cpu:         6.7
 (Enter /soft/gaussian/09-e.01/g09/l508.exe)
 QCSCF skips out because SCF is already converged.
 Leave Link  508 at Thu Sep  5 23:08:12 2019, MaxMem=  2684354560 cpu:         0.0
 (Enter /soft/gaussian/09-e.01/g09/l601.exe)
 Copying SCF densities to generalized density rwf, IOpCl= 1 IROHF=0.

 **********************************************************************

            Population analysis using the SCF density.

 **********************************************************************

 Orbital symmetries:
 Alpha Orbitals:
       Occupied  (A) (A) (A) (A) (A) (A)
       Virtual   (A) (A) (A) (A) (A) (A) (A) (A) (A) (A) (A) (A)
                 (A) (A) (A) (A) (A) (A) (A)
 Beta  Orbitals:
       Occupied  (A) (A) (A) (A) (A)
       Virtual   (A) (A) (A) (A) (A) (A) (A) (A) (A) (A) (A) (A)
                 (A) (A) (A) (A) (A) (A) (A) (A)
 The electronic state is 2-A.
 Alpha  occ. eigenvalues --  -10.16935  -0.69682  -0.41712  -0.39245  -0.39242
 Alpha  occ. eigenvalues --   -0.29126
 Alpha virt. eigenvalues --    0.12611   0.17414   0.17419   0.23102   0.53025
 Alpha virt. eigenvalues --    0.53035   0.53184   0.74932   0.89532   0.89539
 Alpha virt. eigenvalues --    0.93795   0.97447   1.16269   1.65049   1.65063
 Alpha virt. eigenvalues --    2.23803   2.24063   2.24066   4.20274
  Beta  occ. eigenvalues --  -10.16753  -0.69229  -0.39756  -0.39130  -0.39128
  Beta virt. eigenvalues --   -0.08335   0.12872   0.17520   0.17524   0.24805
  Beta virt. eigenvalues --    0.53031   0.53033   0.54106   0.89680   0.89688
  Beta virt. eigenvalues --    0.90392   0.94095   0.98193   1.17158   1.65569
  Beta virt. eigenvalues --    1.65574   2.24349   2.24362   2.24400   4.20660
          Condensed to atoms (all electrons):
               1          2          3          4          5          6
     1  C    5.114232   0.382192   0.383209   0.383209   0.369362  -0.027885
     2  H    0.382192   0.536987  -0.026289  -0.026289  -0.026884   0.000813
     3  H    0.383209  -0.026289   0.536851  -0.026311  -0.027844   0.000851
     4  H    0.383209  -0.026289  -0.026311   0.536851  -0.027844   0.000851
     5  H    0.369362  -0.026884  -0.027844  -0.027844   0.566242   0.017873
     6  H   -0.027885   0.000813   0.000851   0.000851   0.017873   1.010809
          Atomic-Atomic Spin Densities.
               1          2          3          4          5          6
     1  C    0.134942  -0.005792  -0.005263  -0.005263   0.014467  -0.037045
     2  H   -0.005792   0.001037   0.001042   0.001042   0.000961   0.001346
     3  H   -0.005263   0.001042  -0.000268   0.000940   0.001054   0.001365
     4  H   -0.005263   0.001042   0.000940  -0.000268   0.001054   0.001365
     5  H    0.014467   0.000961   0.001054   0.001054  -0.044709  -0.012330
     6  H   -0.037045   0.001346   0.001365   0.001365  -0.012330   0.991382
 Mulliken charges and spin densities:
               1          2
     1  C   -0.604319   0.096045
     2  H    0.159468  -0.000364
     3  H    0.159534  -0.001130
     4  H    0.159534  -0.001130
     5  H    0.129095  -0.039504
     6  H   -0.003311   0.946084
 Sum of Mulliken charges =   0.00000   1.00000
 Mulliken charges and spin densities with hydrogens summed into heavy atoms:
               1          2
     1  C    0.000000   1.000000
 Electronic spatial extent (au):  <R**2>=             62.0354
 Charge=             -0.0000 electrons
 Dipole moment (field-independent basis, Debye):
    X=             -0.1090    Y=             -0.0593    Z=             -0.1325  Tot=              0.1815
 Quadrupole moment (field-independent basis, Debye-Ang):
   XX=             -9.6793   YY=             -9.5551   ZZ=             -9.7629
   XY=             -0.0930   XZ=             -0.2117   YZ=             -0.1132
 Traceless Quadrupole moment (field-independent basis, Debye-Ang):
   XX=             -0.0136   YY=              0.1107   ZZ=             -0.0971
   XY=             -0.0930   XZ=             -0.2117   YZ=             -0.1132
 Octapole moment (field-independent basis, Debye-Ang**2):
  XXX=             -2.4919  YYY=             -1.0245  ZZZ=             -2.9737  XYY=             -0.8489
  XXY=             -0.7223  XXZ=             -0.9372  XZZ=             -0.9032  YZZ=             -0.4678
  YYZ=             -1.2613  XYZ=              0.3815
 Hexadecapole moment (field-independent basis, Debye-Ang**3):
 XXXX=            -35.1261 YYYY=            -21.7552 ZZZZ=            -44.5578 XXXY=             -4.4827
 XXXZ=            -11.6577 YYYX=             -4.9537 YYYZ=             -5.8438 ZZZX=            -11.5891
 ZZZY=             -5.9846 XXYY=             -9.2159 XXZZ=            -13.4648 YYZZ=            -10.5886
 XXYZ=             -2.2616 YYXZ=             -3.8515 ZZXY=             -2.1187
 N-N= 1.541448530668D+01 E-N=-1.248660376996D+02  KE= 4.061515397400D+01
                          Isotropic Fermi Contact Couplings
        Atom                 a.u.       MegaHertz       Gauss      10(-4) cm-1
     1  C(13)              0.04520      50.81392      18.13167      16.94970
     2  H(1)              -0.00027      -1.21387      -0.43314      -0.40490
     3  H(1)              -0.00062      -2.76649      -0.98715      -0.92280
     4  H(1)              -0.00062      -2.76651      -0.98716      -0.92281
     5  H(1)              -0.00217      -9.69292      -3.45868      -3.23321
     6  H(1)               0.29611    1323.56916     472.28237     441.49515
 --------------------------------------------------------
       Center         ----  Spin Dipole Couplings  ----
                      3XX-RR        3YY-RR        3ZZ-RR
 --------------------------------------------------------
     1   Atom        0.004709     -0.041029      0.036320
     2   Atom       -0.002690     -0.000591      0.003281
     3   Atom        0.006324     -0.004185     -0.002139
     4   Atom       -0.002989     -0.001297      0.004286
     5   Atom        0.004024     -0.032227      0.028202
     6   Atom       -0.000314      0.002380     -0.002067
 --------------------------------------------------------
                        XY            XZ            YZ
 --------------------------------------------------------
     1   Atom        0.039117      0.082302      0.047384
     2   Atom       -0.002251      0.009443     -0.004351
     3   Atom        0.009613      0.001690      0.000655
     4   Atom       -0.001819      0.001093      0.010380
     5   Atom        0.025512      0.060435      0.031096
     6   Atom       -0.001652     -0.004269     -0.002024
 --------------------------------------------------------


 ---------------------------------------------------------------------------------
              Anisotropic Spin Dipole Couplings in Principal Axis System
 ---------------------------------------------------------------------------------

       Atom             a.u.   MegaHertz   Gauss  10(-4) cm-1        Axes

              Baa    -0.0635    -8.524    -3.042    -2.843 -0.1399  0.9342 -0.3281
     1 C(13)  Bbb    -0.0633    -8.493    -3.030    -2.833  0.7891 -0.0949 -0.6069
              Bcc     0.1268    17.017     6.072     5.676  0.5981  0.3438  0.7240
 
              Baa    -0.0097    -5.165    -1.843    -1.723  0.7891 -0.0950 -0.6068
     2 H(1)   Bbb    -0.0024    -1.267    -0.452    -0.423  0.2896  0.9288  0.2311
              Bcc     0.0121     6.432     2.295     2.146  0.5417 -0.3581  0.7605
 
              Baa    -0.0099    -5.281    -1.884    -1.762 -0.5124  0.8578  0.0392
     3 H(1)   Bbb    -0.0023    -1.254    -0.447    -0.418 -0.0860 -0.0967  0.9916
              Bcc     0.0122     6.535     2.332     2.180  0.8544  0.5048  0.1234
 
              Baa    -0.0099    -5.281    -1.884    -1.762  0.2920  0.7610 -0.5794
     4 H(1)   Bbb    -0.0023    -1.254    -0.447    -0.418  0.9563 -0.2222  0.1901
              Bcc     0.0122     6.535     2.332     2.180 -0.0159  0.6095  0.7926
 
              Baa    -0.0455   -24.288    -8.666    -8.101  0.7891 -0.0950 -0.6068
     5 H(1)   Bbb    -0.0454   -24.205    -8.637    -8.074 -0.1186  0.9458 -0.3023
              Bcc     0.0909    48.493    17.303    16.175  0.6027  0.3106  0.7351
 
              Baa    -0.0063    -3.378    -1.205    -1.127  0.6054  0.2873  0.7423
     6 H(1)   Bbb     0.0032     1.688     0.602     0.563 -0.1038  0.9531 -0.2842
              Bcc     0.0032     1.690     0.603     0.564  0.7891 -0.0950 -0.6068
 

 ---------------------------------------------------------------------------------

 No NMR shielding tensors so no spin-rotation constants.
 Leave Link  601 at Thu Sep  5 23:08:12 2019, MaxMem=  2684354560 cpu:         3.2
 (Enter /soft/gaussian/09-e.01/g09/l701.exe)
 Compute integral first derivatives.
 ... and contract with generalized density number  0.
 Leave Link  701 at Thu Sep  5 23:08:12 2019, MaxMem=  2684354560 cpu:         1.5
 (Enter /soft/gaussian/09-e.01/g09/l702.exe)
 L702 exits ... SP integral derivatives will be done elsewhere.
 Leave Link  702 at Thu Sep  5 23:08:12 2019, MaxMem=  2684354560 cpu:         0.1
 (Enter /soft/gaussian/09-e.01/g09/l703.exe)
 Compute integral first derivatives, UseDBF=F ICtDFT=           0.
 Integral derivatives from FoFJK, PRISM(SPDF).
 Calling FoFJK, ICntrl=      2127 FMM=F ISym2X=0 I1Cent= 0 IOpClX= 1 NMat=1 NMatS=1 NMatT=0.
 FoFJK:  IHMeth= 1 ICntrl=    2127 DoSepK=F KAlg= 0 I1Cent=   0 FoldK=F
 IRaf=         0 NMat=   1 IRICut=       1 DoRegI=T DoRafI=F ISym2E= 0.
 FoFCou: FMM=F IPFlag=           0 FMFlag=      100000 FMFlg1=         800
         NFxFlg=           0 DoJE=F BraDBF=F KetDBF=F FulRan=T
         wScrn=  0.000000 ICntrl=    2127 IOpCl=  1 I1Cent=           0 NGrid=           0
         NMat0=    1 NMatS0=      1 NMatT0=    0 NMatD0=    1 NMtDS0=    0 NMtDT0=    0
 Symmetry not used in FoFCou.
 Leave Link  703 at Thu Sep  5 23:08:12 2019, MaxMem=  2684354560 cpu:         2.2
 (Enter /soft/gaussian/09-e.01/g09/l716.exe)
 Dipole        =-4.28878592D-02-2.33190374D-02-5.21213997D-02
 ***** Axes restored to original set *****
 -------------------------------------------------------------------
 Center     Atomic                   Forces (Hartrees/Bohr)
 Number     Number              X              Y              Z
 -------------------------------------------------------------------
      1        6           0.004531399   -0.007847856    0.003504664
      2        1          -0.000309335    0.000535563    0.000873707
      3        1           0.000651840    0.000577053   -0.000600609
      4        1          -0.000825602   -0.000276109   -0.000600461
      5        1          -0.001477108    0.002557945   -0.001011857
      6        1          -0.002571194    0.004453404   -0.002165444
 -------------------------------------------------------------------
 Cartesian Forces:  Max     0.007847856 RMS     0.002775586
 -----------------------------------------------------------------------------------------------
                       Internal Coordinate Forces (Hartree/Bohr or radian)
  Cent   Atom   N1       Length/X         N2         Alpha/Y        N3         Beta/Z          J
 -----------------------------------------------------------------------------------------------
      1  C 
      2  H        1   0.000874(     1)
      3  H        1   0.000815(     2)      2   0.000720(     7)
      4  H        1   0.000815(     3)      2   0.000720(     8)      3   0.001123(    12)     0
      5  H        1   0.008692(     4)      2   0.000132(     9)      3  -0.000001(    13)     0
         X        5  -0.000000(     5)      1   0.000481(    10)      2   0.000000(    14)     0
      6  H        5   0.005577(     6)      6   0.000481(    11)      1   0.000000(    15)     0
 -----------------------------------------------------------------------------------------------
 Internal  Forces:  Max     0.008692231 RMS     0.002726787
 Force constants in Cartesian coordinates: 
                1             2             3             4             5 
      1  0.825227D+00
      2  0.904475D-01  0.720787D+00
      3 -0.615639D-02  0.106632D-01  0.699040D+00
      4 -0.719808D-01  0.248364D-02  0.000000D+00  0.572310D-01
      5  0.248364D-02 -0.748487D-01  0.000000D+00  0.263014D-03  0.569273D-01
      6  0.000000D+00  0.000000D+00 -0.345595D+00  0.000000D+00  0.000000D+00
      7 -0.317375D+00 -0.106167D-02  0.844459D-01  0.125683D-01  0.000000D+00
      8 -0.295122D-02 -0.781215D-01 -0.330629D-03  0.000000D+00  0.436532D-03
      9  0.798174D-01 -0.300286D-02 -0.106746D+00  0.355484D-01  0.000000D+00
     10 -0.139673D+00 -0.105548D+00 -0.419366D-01  0.346946D-02  0.525319D-02
     11 -0.103658D+00 -0.255824D+00 -0.732976D-01  0.525319D-02  0.953533D-02
     12 -0.373082D-01 -0.706254D-01 -0.106746D+00 -0.177742D-01 -0.307858D-01
     13 -0.406032D+00 -0.476869D-01 -0.313373D-01 -0.465785D-02 -0.994550D-02
     14 -0.476869D-01 -0.350968D+00  0.542779D-01 -0.994550D-02  0.682622D-02
     15 -0.324566D-01  0.562165D-01 -0.161993D+00 -0.177742D-01  0.307858D-01
     16  0.109834D+00  0.613654D-01 -0.501554D-02  0.336996D-02  0.194565D-02
     17  0.613654D-01  0.389758D-01  0.868717D-02  0.194565D-02  0.112332D-02
     18 -0.389625D-02  0.674850D-02  0.220405D-01  0.000000D+00  0.000000D+00
                6             7             8             9            10 
      6  0.345595D+00
      7  0.000000D+00  0.313555D+00
      8  0.000000D+00  0.876712D-04  0.569273D-01
      9  0.000000D+00 -0.906241D-01  0.247972D-03  0.892715D-01
     10  0.000000D+00 -0.520040D-02 -0.272741D-01 -0.147089D-01  0.121160D+00
     11  0.000000D+00  0.175106D-02  0.953533D-02  0.495276D-02  0.111167D+00
     12  0.000000D+00  0.306526D-02  0.152147D-01  0.866986D-02  0.450973D-01
     13  0.000000D+00 -0.242380D-02  0.320833D-01 -0.685555D-02  0.224901D-01
     14  0.000000D+00 -0.128514D-03  0.123457D-01 -0.363494D-03  0.176992D-01
     15  0.000000D+00  0.311298D-02 -0.151320D-01  0.880484D-02  0.115482D-01
     16  0.000000D+00 -0.112332D-02 -0.194565D-02 -0.317723D-02 -0.224664D-02
     17  0.000000D+00 -0.648550D-03 -0.112332D-02 -0.183438D-02 -0.129710D-02
     18  0.000000D+00  0.000000D+00  0.000000D+00  0.000000D+00  0.000000D+00
               11            12            13            14            15 
     11  0.249322D+00
     12  0.786068D-01  0.892715D-01
     13 -0.145126D-01  0.374257D-02  0.586345D+00
     14 -0.125683D-01  0.575533D-02  0.125383D+00  0.441564D+00
     15 -0.102619D-01  0.880484D-02  0.366591D-01 -0.634954D-01  0.189545D+00
     16  0.000000D+00  0.317723D-02 -0.195721D+00 -0.853218D-01 -0.108947D-02
     17  0.000000D+00  0.183438D-02 -0.853218D-01 -0.971997D-01  0.188702D-02
     18  0.000000D+00  0.000000D+00 -0.220876D-02  0.382568D-02 -0.451620D-01
               16            17            18 
     16  0.858863D-01
     17  0.239564D-01  0.582238D-01
     18  0.610501D-02 -0.105742D-01  0.231215D-01
 Force constants in internal coordinates: 
                1             2             3             4             5 
      1  0.345595D+00
      2  0.000000D+00  0.345595D+00
      3  0.000000D+00  0.000000D+00  0.345595D+00
      4  0.000000D+00  0.000000D+00  0.000000D+00  0.345595D+00
      5  0.000000D+00  0.000000D+00  0.000000D+00  0.000000D+00  0.000000D+00
      6  0.000000D+00  0.000000D+00  0.000000D+00  0.000000D+00  0.000000D+00
      7  0.000000D+00  0.000000D+00  0.000000D+00  0.000000D+00  0.000000D+00
      8  0.000000D+00  0.000000D+00  0.000000D+00  0.000000D+00  0.000000D+00
      9  0.000000D+00  0.000000D+00  0.000000D+00  0.000000D+00  0.000000D+00
     10  0.000000D+00  0.000000D+00  0.000000D+00  0.000000D+00  0.000000D+00
     11  0.000000D+00  0.000000D+00  0.000000D+00  0.000000D+00  0.000000D+00
     12  0.000000D+00  0.000000D+00  0.000000D+00  0.000000D+00  0.000000D+00
     13  0.000000D+00  0.000000D+00  0.000000D+00  0.000000D+00  0.000000D+00
     14  0.000000D+00  0.000000D+00  0.000000D+00  0.000000D+00  0.000000D+00
     15  0.000000D+00  0.000000D+00  0.000000D+00  0.000000D+00  0.000000D+00
                6             7             8             9            10 
      6  0.499496D-01
      7  0.000000D+00  0.243800D+00
      8  0.000000D+00  0.415497D-01  0.243800D+00
      9  0.000000D+00  0.421965D-01  0.421965D-01  0.242291D+00
     10  0.000000D+00  0.000000D+00  0.000000D+00  0.000000D+00  0.160000D+00
     11  0.000000D+00  0.000000D+00  0.000000D+00  0.000000D+00  0.160000D+00
     12  0.000000D+00 -0.648136D-01 -0.105634D-02  0.644615D-01  0.000000D+00
     13  0.000000D+00  0.637573D-01 -0.637573D-01  0.000000D+00  0.000000D+00
     14  0.000000D+00 -0.211268D-02  0.211268D-02  0.000000D+00  0.000000D+00
     15  0.000000D+00 -0.241481D-01  0.241481D-01  0.000000D+00  0.000000D+00
               11            12            13            14            15 
     11  0.160000D+00
     12  0.000000D+00  0.215561D+00
     13  0.000000D+00 -0.108068D+00  0.216136D+00
     14  0.000000D+00 -0.115000D-02  0.230000D-02  0.690000D-02
     15  0.000000D+00 -0.131446D-01  0.262891D-01  0.788674D-01  0.901458D+00
 Leave Link  716 at Thu Sep  5 23:08:12 2019, MaxMem=  2684354560 cpu:         0.2
 (Enter /soft/gaussian/09-e.01/g09/l103.exe)

 GradGradGradGradGradGradGradGradGradGradGradGradGradGradGradGradGradGrad
 Berny optimization.
 Search for a local minimum.
 Step number   1 out of a maximum of   25
 All quantities printed in internal units (Hartrees-Bohrs-Radians)
 Second derivative matrix not updated -- first step.
 The second derivative matrix:
                          R1        R2        A2        R3        A3
           R1           0.34560
           R2          -0.00000   0.34560
           A2           0.00000   0.00000   0.24380
           R3           0.00000  -0.00000   0.00000   0.34560
           A3           0.00000   0.00000   0.04155   0.00000   0.24380
           D3           0.00000  -0.00000  -0.06481  -0.00000  -0.00106
           R4           0.00000   0.00000  -0.00000   0.00000  -0.00000
           A4          -0.00000   0.00000   0.04220  -0.00000   0.04220
           D4           0.00000   0.00000   0.06376  -0.00000  -0.06376
           A6          -0.00000   0.00000  -0.00000   0.00000  -0.00000
           D6          -0.00000  -0.00000  -0.02415   0.00000   0.02415
           A5          -0.00000   0.00000   0.00000   0.00000  -0.00000
           D5          -0.00000  -0.00000  -0.00211   0.00000   0.00211
           R5           0.00000  -0.00000  -0.00000  -0.00000   0.00000
           R6           0.00000   0.00000  -0.00000  -0.00000   0.00000
                          D3        R4        A4        D4        A6
           D3           0.21556
           R4          -0.00000   0.34560
           A4           0.06446  -0.00000   0.24229
           D4          -0.10807   0.00000  -0.00000   0.21614
           A6          -0.00000   0.00000  -0.00000   0.00000   0.16000
           D6          -0.01314   0.00000  -0.00000   0.02629  -0.00000
           A5           0.00000  -0.00000   0.00000   0.00000   0.16000
           D5          -0.00115  -0.00000   0.00000   0.00230  -0.00000
           R5          -0.00000   0.00000  -0.00000  -0.00000   0.00000
           R6          -0.00000  -0.00000   0.00000   0.00000  -0.00000
                          D6        A5        D5        R5        R6
           D6           0.90146
           A5          -0.00000   0.16000
           D5           0.07887  -0.00000   0.00690
           R5           0.00000   0.00000   0.00000   0.00000
           R6           0.00000  -0.00000  -0.00000  -0.00000   0.04995
 ITU=  0
     Eigenvalues ---    0.07436   0.13417   0.16000   0.23378   0.32726
     Eigenvalues ---    0.34560   0.34560   0.34560   0.34560   0.38934
     Eigenvalues ---    0.904151000.000001000.000001000.000001000.00000
 RFO step:  Lambda=-2.42876389D-04 EMin= 7.43553518D-02
 Linear search not attempted -- first point.
 Variable       Old X    -DE/DX   Delta X   Delta X   Delta X     New X
                                 (Linear)    (Quad)   (Total)
    R1        2.06396   0.00087   0.00000   0.00253   0.00253   2.06649
    R2        2.06396   0.00081   0.00000   0.00236   0.00236   2.06632
    A2        1.91063   0.00072   0.00000   0.00422   0.00422   1.91485
    R3        2.06396   0.00081   0.00000   0.00236   0.00236   2.06632
    A3        1.91063   0.00072   0.00000   0.00421   0.00421   1.91485
    D3        2.09440   0.00112   0.00000   0.01009   0.01009   2.10448
    R4        2.06396   0.00869   0.00000   0.02513   0.02513   2.08909
    A4        1.91063   0.00013   0.00000  -0.00360  -0.00360   1.90703
    D4        4.18879  -0.00000   0.00000   0.00503   0.00503   4.19382
    A6        1.48353   0.00048   0.00000   0.00300   0.00300   1.48653
    D6        3.14159   0.00000   0.00000   0.00000   0.00000   3.14159
    A5        1.57080   0.00048   0.00000   0.00000   0.00000   1.57080
    D5        3.14159   0.00000   0.00000   0.00000   0.00000   3.14159
    R5        1.88973  -0.00000   0.00000   0.00000   0.00000   1.88973
    R6        3.01816   0.00558   0.00000   0.00000   0.00000   3.01816
         Item               Value     Threshold  Converged?
 Maximum Force            0.008692     0.000450     NO 
 RMS     Force            0.002700     0.000300     NO 
 Maximum Displacement     0.025134     0.001800     NO 
 RMS     Displacement     0.007456     0.001200     NO 
 Predicted change in Energy=-1.215395D-04
 Lowest energy point so far.  Saving SCF results.
 GradGradGradGradGradGradGradGradGradGradGradGradGradGradGradGradGradGrad

 Leave Link  103 at Thu Sep  5 23:08:12 2019, MaxMem=  2684354560 cpu:         0.1
 (Enter /soft/gaussian/09-e.01/g09/l202.exe)
 ---------------------------------------------------------------------------------------------------
                            Z-MATRIX (ANGSTROMS AND DEGREES)
   CD    Cent   Atom    N1       Length/X        N2       Alpha/Y        N3        Beta/Z          J
 ---------------------------------------------------------------------------------------------------
      1      1  C 
      2      2  H        1   1.093538(     1)
      3      3  H        1   1.093448(     2)      2  109.713(     7)
      4      4  H        1   1.093448(     3)      2  109.713(     8)      3  120.578(    12)      0
      5      5  H        1   1.105501(     4)      2  109.265(     9)      3  240.288(    13)      0
      6         X        5   1.000000(     5)      1   90.000(    10)      2  180.000(    14)      0
      7      6  H        5   1.597143(     6)      6   85.172(    11)      1  180.000(    15)      0
 ---------------------------------------------------------------------------------------------------
                         Z-Matrix orientation:                         
 ---------------------------------------------------------------------
 Center     Atomic      Atomic             Coordinates (Angstroms)
 Number     Number       Type             X           Y           Z
 ---------------------------------------------------------------------
      1          6           0        0.000000    0.000000    0.000000
      2          1           0        0.000000    0.000000    1.093538
      3          1           0        1.029365    0.000000   -0.368831
      4          1           0       -0.523650   -0.886221   -0.368822
      5          1           0       -0.517244    0.906397   -0.364742
      6         -1           0       -0.353717    0.619839   -1.308746
      7          1           0       -1.239884    2.172721   -1.016724
 ---------------------------------------------------------------------
                    Distance matrix (angstroms):
                    1          2          3          4          5
     1  C    0.000000
     2  H    1.093538   0.000000
     3  H    1.093448   1.788327   0.000000
     4  H    1.093448   1.788322   1.788084   0.000000
     5  H    1.105501   1.793231   1.792643   1.792634   0.000000
     6  X    1.490682   2.506050   1.783411   1.783410   1.000000
     7  H    2.700325   3.272802   3.207798   3.207787   1.597143
                    6          7
     6  X    0.000000
     7  H    1.811632   0.000000
 Stoichiometry    CH5(2)
 Framework group  C1[X(CH5)]
 Deg. of freedom    12
 Full point group                 C1      NOp   1
 RotChk:  IX=2 Diff= 1.31D+00
 Largest Abelian subgroup         C1      NOp   1
 Largest concise Abelian subgroup C1      NOp   1
                         Standard orientation:                         
 ---------------------------------------------------------------------
 Center     Atomic      Atomic             Coordinates (Angstroms)
 Number     Number       Type             X           Y           Z
 ---------------------------------------------------------------------
      1          6           0       -0.247744   -0.000056    0.000001
      2          1           0       -0.659509    1.012935    0.011159
      3          1           0       -0.581503   -0.543665    0.888101
      4          1           0       -0.581488   -0.523954   -0.899874
      5          1           0        0.856385    0.055004    0.000608
      6          1           0        2.452581    0.000015    0.000003
 ---------------------------------------------------------------------
 Rotational constants (GHZ):    156.8133448     49.8338566     49.8311810
 Leave Link  202 at Thu Sep  5 23:08:12 2019, MaxMem=  2684354560 cpu:         0.1
 (Enter /soft/gaussian/09-e.01/g09/l301.exe)
 Standard basis: 6-31G(d) (6D, 7F)
 Ernie: Thresh=  0.10000D-02 Tol=  0.10000D-05 Strict=F.
 There are    25 symmetry adapted cartesian basis functions of A   symmetry.
 There are    25 symmetry adapted basis functions of A   symmetry.
    25 basis functions,    48 primitive gaussians,    25 cartesian basis functions
     6 alpha electrons        5 beta electrons
       nuclear repulsion energy        15.3549736367 Hartrees.
 IExCor=  402 DFT=T Ex+Corr=B3LYP ExCW=0 ScaHFX=  0.200000
 ScaDFX=  0.800000  0.720000  1.000000  0.810000 ScalE2=  1.000000  1.000000
 IRadAn=      5 IRanWt=     -1 IRanGd=            0 ICorTp=0 IEmpDi=  4
 NAtoms=    6 NActive=    6 NUniq=    6 SFac= 1.00D+00 NAtFMM=   60 NAOKFM=F Big=F
 Integral buffers will be    131072 words long.
 Raffenetti 2 integral format.
 Two-electron integral symmetry is turned on.
 Leave Link  301 at Thu Sep  5 23:08:13 2019, MaxMem=  2684354560 cpu:         0.5
 (Enter /soft/gaussian/09-e.01/g09/l302.exe)
 NPDir=0 NMtPBC=     1 NCelOv=     1 NCel=       1 NClECP=     1 NCelD=      1
         NCelK=      1 NCelE2=     1 NClLst=     1 CellRange=     0.0.
 One-electron integrals computed using PRISM.
 NBasis=    25 RedAO= T EigKep=  1.51D-02  NBF=    25
 NBsUse=    25 1.00D-06 EigRej= -1.00D+00 NBFU=    25
 Precomputing XC quadrature grid using
 IXCGrd= 4 IRadAn=           5 IRanWt=          -1 IRanGd=           0 AccXCQ= 0.00D+00.
 Generated NRdTot=       0 NPtTot=           0 NUsed=           0 NTot=          32
 NSgBfM=    25    25    25    25    25 MxSgAt=     6 MxSgA2=     6.
 Leave Link  302 at Thu Sep  5 23:08:13 2019, MaxMem=  2684354560 cpu:         1.5
 (Enter /soft/gaussian/09-e.01/g09/l303.exe)
 DipDrv:  MaxL=1.
 Leave Link  303 at Thu Sep  5 23:08:13 2019, MaxMem=  2684354560 cpu:         0.2
 (Enter /soft/gaussian/09-e.01/g09/l401.exe)
 Initial guess from the checkpoint file:  "/blues/gpfs/home/elliott/Packages/PACC/moldriver/rcdriver/tmprundir/RXN/CH3.H2/MDUSDFXREFXETQ/0_0/2_1/UHFFFAOYSA-N/CH4.H/HXBDELFRWIQQII/0_0/1_2/UHFFFAOYSA-N/2/ezvlpJU/SCANS/R6/06/RUN/OPTI/A00/Gau-161921.chk"
 B after Tr=     0.000000   -0.000000    0.000000
         Rot=    0.887402   -0.117168   -0.429594    0.119327 Ang= -54.90 deg.
 Guess basis will be translated and rotated to current coordinates.
 JPrj=2 DoOrth=T DoCkMO=T.
 Initial guess <Sx>= 0.0000 <Sy>= 0.0000 <Sz>= 0.5000 <S**2>= 0.7510 S= 0.5005
 Generating alternative initial guess.
 ExpMin= 1.61D-01 ExpMax= 3.05D+03 ExpMxC= 4.57D+02 IAcc=2 IRadAn=         4 AccDes= 0.00D+00
 Harris functional with IExCor=  402 and IRadAn=       4 diagonalized for initial guess.
 HarFok:  IExCor=  402 AccDes= 0.00D+00 IRadAn=         4 IDoV= 1 UseB2=F ITyADJ=14
 ICtDFT=  3500011 ScaDFX=  1.000000  1.000000  1.000000  1.000000
 FoFCou: FMM=F IPFlag=           0 FMFlag=      100000 FMFlg1=           0
         NFxFlg=           0 DoJE=T BraDBF=F KetDBF=T FulRan=T
         wScrn=  0.000000 ICntrl=     500 IOpCl=  0 I1Cent=   200000004 NGrid=           0
         NMat0=    1 NMatS0=      1 NMatT0=    0 NMatD0=    1 NMtDS0=    0 NMtDT0=    0
 Petite list used in FoFCou.
 Harris En= -41.0195181233814    
 Leave Link  401 at Thu Sep  5 23:08:13 2019, MaxMem=  2684354560 cpu:         1.8
 (Enter /soft/gaussian/09-e.01/g09/l502.exe)
 UHF open shell SCF:
 Using DIIS extrapolation, IDIIS=  1040.
 Integral symmetry usage will be decided dynamically.
 Keep R1 and R2 ints in memory in canonical form, NReq=976418.
 IVT=        8268 IEndB=        8268 NGot=  2684354560 MDV=  2684240343
 LenX=  2684240343 LenY=  2684239277
 Requested convergence on RMS density matrix=1.00D-08 within  64 cycles.
 Requested convergence on MAX density matrix=1.00D-06.
 Requested convergence on             energy=1.00D-06.
 No special actions if energy rises.
 FoFCou: FMM=F IPFlag=           0 FMFlag=           0 FMFlg1=           0
         NFxFlg=           0 DoJE=F BraDBF=F KetDBF=F FulRan=T
         wScrn=  0.000000 ICntrl=     600 IOpCl=  0 I1Cent=           0 NGrid=           0
         NMat0=    1 NMatS0=    325 NMatT0=    0 NMatD0=    1 NMtDS0=    0 NMtDT0=    0
 Symmetry not used in FoFCou.
 Integral accuracy reduced to 1.0D-05 until final iterations.

 Cycle   1  Pass 0  IDiag  1:
 E= -41.0156925953847    
 DIIS: error= 1.21D-03 at cycle   1 NSaved=   1.
 NSaved= 1 IEnMin= 1 EnMin= -41.0156925953847     IErMin= 1 ErrMin= 1.21D-03
 ErrMax= 1.21D-03  0.00D+00 EMaxC= 1.00D-01 BMatC= 7.19D-05 BMatP= 7.19D-05
 IDIUse=3 WtCom= 9.88D-01 WtEn= 1.21D-02
 Coeff-Com:  0.100D+01
 Coeff-En:   0.100D+01
 Coeff:      0.100D+01
 Gap=     2.128 Goal=   None    Shift=    0.000
 Gap=     2.050 Goal=   None    Shift=    0.000
 GapD=    2.050 DampG=2.000 DampE=1.000 DampFc=2.0000 IDamp=-1.
 RMSDP=2.67D-04 MaxDP=2.91D-03              OVMax= 5.27D-03

 Cycle   2  Pass 0  IDiag  1:
 E= -41.0157149054937     Delta-E=       -0.000022310109 Rises=F Damp=F
 DIIS: error= 7.11D-04 at cycle   2 NSaved=   2.
 NSaved= 2 IEnMin= 2 EnMin= -41.0157149054937     IErMin= 2 ErrMin= 7.11D-04
 ErrMax= 7.11D-04  0.00D+00 EMaxC= 1.00D-01 BMatC= 3.42D-05 BMatP= 7.19D-05
 IDIUse=3 WtCom= 9.93D-01 WtEn= 7.11D-03
 Coeff-Com:  0.379D+00 0.621D+00
 Coeff-En:   0.000D+00 0.100D+01
 Coeff:      0.376D+00 0.624D+00
 Gap=     0.416 Goal=   None    Shift=    0.000
 Gap=     0.308 Goal=   None    Shift=    0.000
 RMSDP=1.33D-04 MaxDP=1.03D-03 DE=-2.23D-05 OVMax= 1.24D-03

 Cycle   3  Pass 0  IDiag  1:
 E= -41.0157225833432     Delta-E=       -0.000007677850 Rises=F Damp=F
 DIIS: error= 2.53D-04 at cycle   3 NSaved=   3.
 NSaved= 3 IEnMin= 3 EnMin= -41.0157225833432     IErMin= 3 ErrMin= 2.53D-04
 ErrMax= 2.53D-04  0.00D+00 EMaxC= 1.00D-01 BMatC= 4.73D-06 BMatP= 3.42D-05
 IDIUse=3 WtCom= 9.97D-01 WtEn= 2.53D-03
 Coeff-Com: -0.721D-03 0.266D+00 0.735D+00
 Coeff-En:   0.000D+00 0.616D-01 0.938D+00
 Coeff:     -0.720D-03 0.266D+00 0.735D+00
 Gap=     0.416 Goal=   None    Shift=    0.000
 Gap=     0.308 Goal=   None    Shift=    0.000
 RMSDP=3.38D-05 MaxDP=3.93D-04 DE=-7.68D-06 OVMax= 5.75D-04

 Cycle   4  Pass 0  IDiag  1:
 E= -41.0157238042326     Delta-E=       -0.000001220889 Rises=F Damp=F
 DIIS: error= 2.40D-05 at cycle   4 NSaved=   4.
 NSaved= 4 IEnMin= 4 EnMin= -41.0157238042326     IErMin= 4 ErrMin= 2.40D-05
 ErrMax= 2.40D-05  0.00D+00 EMaxC= 1.00D-01 BMatC= 2.31D-08 BMatP= 4.73D-06
 IDIUse=1 WtCom= 1.00D+00 WtEn= 0.00D+00
 Coeff-Com: -0.585D-02 0.284D-01 0.110D+00 0.868D+00
 Coeff:     -0.585D-02 0.284D-01 0.110D+00 0.868D+00
 Gap=     0.416 Goal=   None    Shift=    0.000
 Gap=     0.308 Goal=   None    Shift=    0.000
 RMSDP=4.79D-06 MaxDP=4.20D-05 DE=-1.22D-06 OVMax= 6.44D-05

 Initial convergence to 1.0D-05 achieved.  Increase integral accuracy.
 Cycle   5  Pass 1  IDiag  1:
 E= -41.0157224909419     Delta-E=        0.000001313291 Rises=F Damp=F
 DIIS: error= 6.92D-06 at cycle   1 NSaved=   1.
 NSaved= 1 IEnMin= 1 EnMin= -41.0157224909419     IErMin= 1 ErrMin= 6.92D-06
 ErrMax= 6.92D-06  0.00D+00 EMaxC= 1.00D-01 BMatC= 1.86D-09 BMatP= 1.86D-09
 IDIUse=1 WtCom= 1.00D+00 WtEn= 0.00D+00
 Coeff-Com:  0.100D+01
 Coeff:      0.100D+01
 Gap=     0.416 Goal=   None    Shift=    0.000
 Gap=     0.308 Goal=   None    Shift=    0.000
 RMSDP=4.79D-06 MaxDP=4.20D-05 DE= 1.31D-06 OVMax= 3.50D-05

 Cycle   6  Pass 1  IDiag  1:
 E= -41.0157224921386     Delta-E=       -0.000000001197 Rises=F Damp=F
 DIIS: error= 2.61D-06 at cycle   2 NSaved=   2.
 NSaved= 2 IEnMin= 2 EnMin= -41.0157224921386     IErMin= 2 ErrMin= 2.61D-06
 ErrMax= 2.61D-06  0.00D+00 EMaxC= 1.00D-01 BMatC= 3.09D-10 BMatP= 1.86D-09
 IDIUse=1 WtCom= 1.00D+00 WtEn= 0.00D+00
 Coeff-Com:  0.825D-01 0.918D+00
 Coeff:      0.825D-01 0.918D+00
 Gap=     0.416 Goal=   None    Shift=    0.000
 Gap=     0.308 Goal=   None    Shift=    0.000
 RMSDP=6.36D-07 MaxDP=5.95D-06 DE=-1.20D-09 OVMax= 8.42D-06

 Cycle   7  Pass 1  IDiag  1:
 E= -41.0157224923185     Delta-E=       -0.000000000180 Rises=F Damp=F
 DIIS: error= 1.03D-06 at cycle   3 NSaved=   3.
 NSaved= 3 IEnMin= 3 EnMin= -41.0157224923185     IErMin= 3 ErrMin= 1.03D-06
 ErrMax= 1.03D-06  0.00D+00 EMaxC= 1.00D-01 BMatC= 5.54D-11 BMatP= 3.09D-10
 IDIUse=1 WtCom= 1.00D+00 WtEn= 0.00D+00
 Coeff-Com: -0.196D+00-0.371D-01 0.123D+01
 Coeff:     -0.196D+00-0.371D-01 0.123D+01
 Gap=     0.416 Goal=   None    Shift=    0.000
 Gap=     0.308 Goal=   None    Shift=    0.000
 RMSDP=4.48D-07 MaxDP=3.88D-06 DE=-1.80D-10 OVMax= 6.69D-06

 Cycle   8  Pass 1  IDiag  1:
 E= -41.0157224923585     Delta-E=       -0.000000000040 Rises=F Damp=F
 DIIS: error= 3.61D-07 at cycle   4 NSaved=   4.
 NSaved= 4 IEnMin= 4 EnMin= -41.0157224923585     IErMin= 4 ErrMin= 3.61D-07
 ErrMax= 3.61D-07  0.00D+00 EMaxC= 1.00D-01 BMatC= 6.57D-12 BMatP= 5.54D-11
 IDIUse=1 WtCom= 1.00D+00 WtEn= 0.00D+00
 Coeff-Com: -0.984D-01-0.332D-01 0.623D+00 0.509D+00
 Coeff:     -0.984D-01-0.332D-01 0.623D+00 0.509D+00
 Gap=     0.416 Goal=   None    Shift=    0.000
 Gap=     0.308 Goal=   None    Shift=    0.000
 RMSDP=4.60D-08 MaxDP=4.26D-07 DE=-3.99D-11 OVMax= 5.13D-07

 Cycle   9  Pass 1  IDiag  1:
 E= -41.0157224923601     Delta-E=       -0.000000000002 Rises=F Damp=F
 DIIS: error= 6.25D-08 at cycle   5 NSaved=   5.
 NSaved= 5 IEnMin= 5 EnMin= -41.0157224923601     IErMin= 5 ErrMin= 6.25D-08
 ErrMax= 6.25D-08  0.00D+00 EMaxC= 1.00D-01 BMatC= 1.97D-13 BMatP= 6.57D-12
 IDIUse=1 WtCom= 1.00D+00 WtEn= 0.00D+00
 Coeff-Com:  0.449D-01 0.817D-02-0.279D+00-0.645D-01 0.129D+01
 Coeff:      0.449D-01 0.817D-02-0.279D+00-0.645D-01 0.129D+01
 Gap=     0.416 Goal=   None    Shift=    0.000
 Gap=     0.308 Goal=   None    Shift=    0.000
 RMSDP=2.33D-08 MaxDP=1.51D-07 DE=-1.66D-12 OVMax= 3.51D-07

 Cycle  10  Pass 1  IDiag  1:
 E= -41.0157224923603     Delta-E=       -0.000000000000 Rises=F Damp=F
 DIIS: error= 6.79D-09 at cycle   6 NSaved=   6.
 NSaved= 6 IEnMin= 6 EnMin= -41.0157224923603     IErMin= 6 ErrMin= 6.79D-09
 ErrMax= 6.79D-09  0.00D+00 EMaxC= 1.00D-01 BMatC= 2.84D-15 BMatP= 1.97D-13
 IDIUse=1 WtCom= 1.00D+00 WtEn= 0.00D+00
 Coeff-Com: -0.267D-02-0.396D-03 0.157D-01 0.304D-02-0.161D+00 0.115D+01
 Coeff:     -0.267D-02-0.396D-03 0.157D-01 0.304D-02-0.161D+00 0.115D+01
 Gap=     0.416 Goal=   None    Shift=    0.000
 Gap=     0.308 Goal=   None    Shift=    0.000
 RMSDP=2.88D-09 MaxDP=2.09D-08 DE=-1.85D-13 OVMax= 2.72D-08

 SCF Done:  E(UB3LYP) =  -41.0157224924     A.U. after   10 cycles
            NFock= 10  Conv=0.29D-08     -V/T= 2.0104
 <Sx>= 0.0000 <Sy>= 0.0000 <Sz>= 0.5000 <S**2>= 0.7511 S= 0.5005
 <L.S>= 0.000000000000E+00
 KE= 4.059295235663D+01 PE=-1.247316096047D+02 EE= 2.776796111898D+01
 Annihilation of the first spin contaminant:
 S**2 before annihilation     0.7511,   after     0.7500
 Leave Link  502 at Thu Sep  5 23:08:14 2019, MaxMem=  2684354560 cpu:         5.9
 (Enter /soft/gaussian/09-e.01/g09/l508.exe)
 QCSCF skips out because SCF is already converged.
 Leave Link  508 at Thu Sep  5 23:08:14 2019, MaxMem=  2684354560 cpu:         0.0
 (Enter /soft/gaussian/09-e.01/g09/l701.exe)
 Compute integral first derivatives.
 ... and contract with generalized density number  0.
 Leave Link  701 at Thu Sep  5 23:08:14 2019, MaxMem=  2684354560 cpu:         1.5
 (Enter /soft/gaussian/09-e.01/g09/l702.exe)
 L702 exits ... SP integral derivatives will be done elsewhere.
 Leave Link  702 at Thu Sep  5 23:08:14 2019, MaxMem=  2684354560 cpu:         0.2
 (Enter /soft/gaussian/09-e.01/g09/l703.exe)
 Compute integral first derivatives, UseDBF=F ICtDFT=           0.
 Integral derivatives from FoFJK, PRISM(SPDF).
 Calling FoFJK, ICntrl=      2127 FMM=F ISym2X=0 I1Cent= 0 IOpClX= 1 NMat=1 NMatS=1 NMatT=0.
 FoFJK:  IHMeth= 1 ICntrl=    2127 DoSepK=F KAlg= 0 I1Cent=   0 FoldK=F
 IRaf=         0 NMat=   1 IRICut=       1 DoRegI=T DoRafI=F ISym2E= 0.
 FoFCou: FMM=F IPFlag=           0 FMFlag=      100000 FMFlg1=         800
         NFxFlg=           0 DoJE=F BraDBF=F KetDBF=F FulRan=T
         wScrn=  0.000000 ICntrl=    2127 IOpCl=  1 I1Cent=           0 NGrid=           0
         NMat0=    1 NMatS0=      1 NMatT0=    0 NMatD0=    1 NMtDS0=    0 NMtDT0=    0
 Symmetry not used in FoFCou.
 Leave Link  703 at Thu Sep  5 23:08:14 2019, MaxMem=  2684354560 cpu:         2.2
 (Enter /soft/gaussian/09-e.01/g09/l716.exe)
 Dipole        =-7.35750119D-02-1.29629462D-03-1.62533979D-05
 ***** Axes restored to original set *****
 -------------------------------------------------------------------
 Center     Atomic                   Forces (Hartrees/Bohr)
 Number     Number              X              Y              Z
 -------------------------------------------------------------------
      1        6           0.000731503   -0.001284605    0.000783733
      2        1          -0.000168459    0.000296196   -0.000162681
      3        1          -0.000192141    0.000306496   -0.000114994
      4        1          -0.000165607    0.000320709   -0.000115115
      5        1           0.002176765   -0.003813014    0.001590195
      6        1          -0.002382061    0.004174219   -0.001981137
 -------------------------------------------------------------------
 Cartesian Forces:  Max     0.004174219 RMS     0.001700638
 -----------------------------------------------------------------------------------------------
                       Internal Coordinate Forces (Hartree/Bohr or radian)
  Cent   Atom   N1       Length/X         N2         Alpha/Y        N3         Beta/Z          J
 -----------------------------------------------------------------------------------------------
      1  C 
      2  H        1  -0.000163(     1)
      3  H        1  -0.000142(     2)      2   0.000358(     7)
      4  H        1  -0.000142(     3)      2   0.000358(     8)      3   0.000595(    12)     0
      5  H        1   0.000521(     4)      2   0.000022(     9)      3   0.000001(    13)     0
         X        5   0.000000(     5)      1   0.000463(    10)      2   0.000000(    14)     0
      6  H        5   0.005196(     6)      6   0.000463(    11)      1   0.000000(    15)     0
 -----------------------------------------------------------------------------------------------
 Internal  Forces:  Max     0.005196123 RMS     0.001375417
 Leave Link  716 at Thu Sep  5 23:08:14 2019, MaxMem=  2684354560 cpu:         0.2
 (Enter /soft/gaussian/09-e.01/g09/l103.exe)

 GradGradGradGradGradGradGradGradGradGradGradGradGradGradGradGradGradGrad
 Berny optimization.
 Search for a local minimum.
 Step number   2 out of a maximum of   25
 All quantities printed in internal units (Hartrees-Bohrs-Radians)
 Update second derivatives using D2CorN and points    1    2
 DE= -1.31D-04 DEPred=-1.22D-04 R= 1.08D+00
 TightC=F SS=  1.41D+00  RLast= 2.89D-02 DXNew= 5.0454D-01 8.6629D-02
 Trust test= 1.08D+00 RLast= 2.89D-02 DXMaxT set to 3.00D-01
 The second derivative matrix:
                          R1        R2        A2        R3        A3
           R1           0.34609
           R2           0.00045   0.34600
           A2          -0.00013  -0.00014   0.24199
           R3           0.00045   0.00040  -0.00014   0.34600
           A3          -0.00013  -0.00014   0.03975  -0.00014   0.24200
           D3           0.00009   0.00003  -0.06847   0.00002  -0.00471
           R4           0.00168   0.00142  -0.00668   0.00142  -0.00668
           A4          -0.00039  -0.00034   0.04291  -0.00034   0.04291
           D4           0.00049   0.00043   0.06268   0.00043  -0.06483
           A6          -0.00041  -0.00040  -0.00181  -0.00040  -0.00181
           D6           0.00000   0.00000  -0.02415   0.00000   0.02415
           A5          -0.00070  -0.00065  -0.00117  -0.00065  -0.00117
           D5          -0.00000  -0.00000  -0.00211  -0.00000   0.00211
           R5          -0.00000  -0.00000  -0.00000  -0.00000  -0.00000
           R6           0.00058   0.00054   0.00097   0.00054   0.00096
                          D3        R4        A4        D4        A6
           D3           0.20840
           R4          -0.01204   0.33007
           A4           0.06560   0.00077   0.24239
           D4          -0.10986  -0.00156  -0.00007   0.21614
           A6          -0.00386  -0.00789   0.00096  -0.00140   0.15834
           D6          -0.01314  -0.00000   0.00000   0.02629  -0.00000
           A5          -0.00280  -0.00697   0.00100  -0.00139   0.15917
           D5          -0.00115  -0.00000   0.00000   0.00230  -0.00000
           R5          -0.00000  -0.00000  -0.00000  -0.00000  -0.00000
           R6           0.00231   0.00575  -0.00082   0.00115   0.00069
                          D6        A5        D5        R5        R6
           D6           0.90146
           A5          -0.00000   0.16000
           D5           0.07887  -0.00000   0.00690
           R5           0.00000   0.00000   0.00000   0.00000
           R6           0.00000  -0.00000  -0.00000  -0.00000   0.04995
 ITU=  1  0
     Eigenvalues ---    0.06634   0.13228   0.15834   0.23378   0.32085
     Eigenvalues ---    0.33523   0.34560   0.34560   0.34744   0.38925
     Eigenvalues ---    0.904151000.000001000.000001000.000001000.00000
 RFO step:  Lambda=-6.87677808D-06 EMin= 6.63431676D-02
 Quartic linear search produced a step of  0.10599.
 Variable       Old X    -DE/DX   Delta X   Delta X   Delta X     New X
                                 (Linear)    (Quad)   (Total)
    R1        2.06649  -0.00016   0.00027  -0.00078  -0.00051   2.06598
    R2        2.06632  -0.00014   0.00025  -0.00069  -0.00044   2.06587
    A2        1.91485   0.00036   0.00045   0.00224   0.00268   1.91754
    R3        2.06632  -0.00014   0.00025  -0.00069  -0.00044   2.06587
    A3        1.91485   0.00036   0.00045   0.00234   0.00279   1.91763
    D3        2.10448   0.00059   0.00107   0.00583   0.00690   2.11138
    R4        2.08909   0.00052   0.00266  -0.00054   0.00212   2.09122
    A4        1.90703   0.00002  -0.00038  -0.00238  -0.00276   1.90427
    D4        4.19382   0.00000   0.00053   0.00307   0.00360   4.19743
    A6        1.48653   0.00046   0.00032   0.00314   0.00346   1.48998
    D6        3.14159   0.00000   0.00000  -0.00001  -0.00001   3.14159
    A5        1.57080   0.00046   0.00000   0.00000   0.00000   1.57080
    D5        3.14159   0.00000   0.00000   0.00000   0.00000   3.14159
    R5        1.88973   0.00000   0.00000   0.00000   0.00000   1.88973
    R6        3.01816   0.00520   0.00000   0.00000   0.00000   3.01816
         Item               Value     Threshold  Converged?
 Maximum Force            0.000595     0.000450     NO 
 RMS     Force            0.000325     0.000300     NO 
 Maximum Displacement     0.006895     0.001800     NO 
 RMS     Displacement     0.002585     0.001200     NO 
 Predicted change in Energy=-4.240005D-06
 Lowest energy point so far.  Saving SCF results.
 GradGradGradGradGradGradGradGradGradGradGradGradGradGradGradGradGradGrad

 Leave Link  103 at Thu Sep  5 23:08:14 2019, MaxMem=  2684354560 cpu:         0.1
 (Enter /soft/gaussian/09-e.01/g09/l202.exe)
 ---------------------------------------------------------------------------------------------------
                            Z-MATRIX (ANGSTROMS AND DEGREES)
   CD    Cent   Atom    N1       Length/X        N2       Alpha/Y        N3        Beta/Z          J
 ---------------------------------------------------------------------------------------------------
      1      1  C 
      2      2  H        1   1.093268(     1)
      3      3  H        1   1.093213(     2)      2  109.867(     7)
      4      4  H        1   1.093214(     3)      2  109.872(     8)      3  120.973(    12)      0
      5      5  H        1   1.106624(     4)      2  109.107(     9)      3  240.495(    13)      0
      6         X        5   1.000000(     5)      1   90.000(    10)      2  180.000(    14)      0
      7      6  H        5   1.597143(     6)      6   85.370(    11)      1  180.000(    15)      0
 ---------------------------------------------------------------------------------------------------
                         Z-Matrix orientation:                         
 ---------------------------------------------------------------------
 Center     Atomic      Atomic             Coordinates (Angstroms)
 Number     Number       Type             X           Y           Z
 ---------------------------------------------------------------------
      1          6           0        0.000000    0.000000    0.000000
      2          1           0        0.000000    0.000000    1.093268
      3          1           0        1.028150    0.000000   -0.371514
      4          1           0       -0.529105   -0.881517   -0.371609
      5          1           0       -0.514989    0.910051   -0.362229
      6         -1           0       -0.353780    0.625174   -1.307140
      7          1           0       -1.235032    2.182480   -1.005137
 ---------------------------------------------------------------------
                    Distance matrix (angstroms):
                    1          2          3          4          5
     1  C    0.000000
     2  H    1.093268   0.000000
     3  H    1.093213   1.789603   0.000000
     4  H    1.093214   1.789661   1.789445   0.000000
     5  H    1.106624   1.792172   1.791524   1.791648   0.000000
     6  X    1.491515   2.505586   1.782125   1.782155   1.000000
     7  H    2.701633   3.269836   3.207287   3.207455   1.597143
                    6          7
     6  X    0.000000
     7  H    1.814666   0.000000
 Stoichiometry    CH5(2)
 Framework group  C1[X(CH5)]
 Deg. of freedom    12
 Full point group                 C1      NOp   1
 RotChk:  IX=0 Diff= 2.44D-01
 Largest Abelian subgroup         C1      NOp   1
 Largest concise Abelian subgroup C1      NOp   1
                         Standard orientation:                         
 ---------------------------------------------------------------------
 Center     Atomic      Atomic             Coordinates (Angstroms)
 Number     Number       Type             X           Y           Z
 ---------------------------------------------------------------------
      1          6           0       -0.248770   -0.000110    0.000004
      2          1           0       -0.655612    1.001638   -0.161913
      3          1           0       -0.580502   -0.383758    0.968448
      4          1           0       -0.580719   -0.669476   -0.798040
      5          1           0        0.856589    0.052122   -0.008455
      6          1           0        2.452863    0.000132   -0.000063
 ---------------------------------------------------------------------
 Rotational constants (GHZ):    156.5818760     49.8239923     49.8219298
 Leave Link  202 at Thu Sep  5 23:08:14 2019, MaxMem=  2684354560 cpu:         0.1
 (Enter /soft/gaussian/09-e.01/g09/l301.exe)
 Standard basis: 6-31G(d) (6D, 7F)
 Ernie: Thresh=  0.10000D-02 Tol=  0.10000D-05 Strict=F.
 There are    25 symmetry adapted cartesian basis functions of A   symmetry.
 There are    25 symmetry adapted basis functions of A   symmetry.
    25 basis functions,    48 primitive gaussians,    25 cartesian basis functions
     6 alpha electrons        5 beta electrons
       nuclear repulsion energy        15.3535021082 Hartrees.
 IExCor=  402 DFT=T Ex+Corr=B3LYP ExCW=0 ScaHFX=  0.200000
 ScaDFX=  0.800000  0.720000  1.000000  0.810000 ScalE2=  1.000000  1.000000
 IRadAn=      5 IRanWt=     -1 IRanGd=            0 ICorTp=0 IEmpDi=  4
 NAtoms=    6 NActive=    6 NUniq=    6 SFac= 1.00D+00 NAtFMM=   60 NAOKFM=F Big=F
 Integral buffers will be    131072 words long.
 Raffenetti 2 integral format.
 Two-electron integral symmetry is turned on.
 Leave Link  301 at Thu Sep  5 23:08:14 2019, MaxMem=  2684354560 cpu:         0.4
 (Enter /soft/gaussian/09-e.01/g09/l302.exe)
 NPDir=0 NMtPBC=     1 NCelOv=     1 NCel=       1 NClECP=     1 NCelD=      1
         NCelK=      1 NCelE2=     1 NClLst=     1 CellRange=     0.0.
 One-electron integrals computed using PRISM.
 NBasis=    25 RedAO= T EigKep=  1.51D-02  NBF=    25
 NBsUse=    25 1.00D-06 EigRej= -1.00D+00 NBFU=    25
 Precomputing XC quadrature grid using
 IXCGrd= 4 IRadAn=           5 IRanWt=          -1 IRanGd=           0 AccXCQ= 0.00D+00.
 Generated NRdTot=       0 NPtTot=           0 NUsed=           0 NTot=          32
 NSgBfM=    25    25    25    25    25 MxSgAt=     6 MxSgA2=     6.
 Leave Link  302 at Thu Sep  5 23:08:14 2019, MaxMem=  2684354560 cpu:         1.5
 (Enter /soft/gaussian/09-e.01/g09/l303.exe)
 DipDrv:  MaxL=1.
 Leave Link  303 at Thu Sep  5 23:08:14 2019, MaxMem=  2684354560 cpu:         0.2
 (Enter /soft/gaussian/09-e.01/g09/l401.exe)
 Initial guess from the checkpoint file:  "/blues/gpfs/home/elliott/Packages/PACC/moldriver/rcdriver/tmprundir/RXN/CH3.H2/MDUSDFXREFXETQ/0_0/2_1/UHFFFAOYSA-N/CH4.H/HXBDELFRWIQQII/0_0/1_2/UHFFFAOYSA-N/2/ezvlpJU/SCANS/R6/06/RUN/OPTI/A00/Gau-161921.chk"
 B after Tr=    -0.000000    0.000000   -0.000000
         Rot=    0.996332    0.085573    0.000002    0.000308 Ang=   9.82 deg.
 Guess basis will be translated and rotated to current coordinates.
 JPrj=2 DoOrth=T DoCkMO=T.
 Initial guess <Sx>= 0.0000 <Sy>= 0.0000 <Sz>= 0.5000 <S**2>= 0.7511 S= 0.5005
 Leave Link  401 at Thu Sep  5 23:08:14 2019, MaxMem=  2684354560 cpu:         0.5
 (Enter /soft/gaussian/09-e.01/g09/l502.exe)
 UHF open shell SCF:
 Using DIIS extrapolation, IDIIS=  1040.
 Integral symmetry usage will be decided dynamically.
 Keep R1 and R2 ints in memory in canonical form, NReq=976418.
 IVT=        8268 IEndB=        8268 NGot=  2684354560 MDV=  2684240343
 LenX=  2684240343 LenY=  2684239277
 Requested convergence on RMS density matrix=1.00D-08 within  64 cycles.
 Requested convergence on MAX density matrix=1.00D-06.
 Requested convergence on             energy=1.00D-06.
 No special actions if energy rises.
 FoFCou: FMM=F IPFlag=           0 FMFlag=           0 FMFlg1=           0
         NFxFlg=           0 DoJE=F BraDBF=F KetDBF=F FulRan=T
         wScrn=  0.000000 ICntrl=     600 IOpCl=  0 I1Cent=           0 NGrid=           0
         NMat0=    1 NMatS0=    325 NMatT0=    0 NMatD0=    1 NMtDS0=    0 NMtDT0=    0
 Symmetry not used in FoFCou.

 Cycle   1  Pass 1  IDiag  1:
 E= -41.0157262033057    
 DIIS: error= 2.17D-04 at cycle   1 NSaved=   1.
 NSaved= 1 IEnMin= 1 EnMin= -41.0157262033057     IErMin= 1 ErrMin= 2.17D-04
 ErrMax= 2.17D-04  0.00D+00 EMaxC= 1.00D-01 BMatC= 4.15D-06 BMatP= 4.15D-06
 IDIUse=3 WtCom= 9.98D-01 WtEn= 2.17D-03
 Coeff-Com:  0.100D+01
 Coeff-En:   0.100D+01
 Coeff:      0.100D+01
 Gap=     2.138 Goal=   None    Shift=    0.000
 Gap=     2.065 Goal=   None    Shift=    0.000
 RMSDP=5.47D-05 MaxDP=3.77D-04              OVMax= 8.61D-04

 Cycle   2  Pass 1  IDiag  1:
 E= -41.0157280067415     Delta-E=       -0.000001803436 Rises=F Damp=F
 DIIS: error= 2.44D-05 at cycle   2 NSaved=   2.
 NSaved= 2 IEnMin= 2 EnMin= -41.0157280067415     IErMin= 2 ErrMin= 2.44D-05
 ErrMax= 2.44D-05  0.00D+00 EMaxC= 1.00D-01 BMatC= 6.45D-08 BMatP= 4.15D-06
 IDIUse=1 WtCom= 1.00D+00 WtEn= 0.00D+00
 Coeff-Com: -0.771D-02 0.101D+01
 Coeff:     -0.771D-02 0.101D+01
 Gap=     0.416 Goal=   None    Shift=    0.000
 Gap=     0.308 Goal=   None    Shift=    0.000
 RMSDP=1.14D-05 MaxDP=8.31D-05 DE=-1.80D-06 OVMax= 9.71D-05

 Cycle   3  Pass 1  IDiag  1:
 E= -41.0157280244559     Delta-E=       -0.000000017714 Rises=F Damp=F
 DIIS: error= 2.13D-05 at cycle   3 NSaved=   3.
 NSaved= 3 IEnMin= 3 EnMin= -41.0157280244559     IErMin= 3 ErrMin= 2.13D-05
 ErrMax= 2.13D-05  0.00D+00 EMaxC= 1.00D-01 BMatC= 3.69D-08 BMatP= 6.45D-08
 IDIUse=1 WtCom= 1.00D+00 WtEn= 0.00D+00
 Coeff-Com: -0.189D-01 0.428D+00 0.591D+00
 Coeff:     -0.189D-01 0.428D+00 0.591D+00
 Gap=     0.416 Goal=   None    Shift=    0.000
 Gap=     0.308 Goal=   None    Shift=    0.000
 RMSDP=3.73D-06 MaxDP=3.80D-05 DE=-1.77D-08 OVMax= 6.24D-05

 Cycle   4  Pass 1  IDiag  1:
 E= -41.0157280336531     Delta-E=       -0.000000009197 Rises=F Damp=F
 DIIS: error= 6.35D-06 at cycle   4 NSaved=   4.
 NSaved= 4 IEnMin= 4 EnMin= -41.0157280336531     IErMin= 4 ErrMin= 6.35D-06
 ErrMax= 6.35D-06  0.00D+00 EMaxC= 1.00D-01 BMatC= 2.87D-09 BMatP= 3.69D-08
 IDIUse=1 WtCom= 1.00D+00 WtEn= 0.00D+00
 Coeff-Com: -0.787D-02 0.731D-01 0.240D+00 0.695D+00
 Coeff:     -0.787D-02 0.731D-01 0.240D+00 0.695D+00
 Gap=     0.416 Goal=   None    Shift=    0.000
 Gap=     0.308 Goal=   None    Shift=    0.000
 RMSDP=1.07D-06 MaxDP=8.80D-06 DE=-9.20D-09 OVMax= 9.91D-06

 Cycle   5  Pass 1  IDiag  1:
 E= -41.0157280344374     Delta-E=       -0.000000000784 Rises=F Damp=F
 DIIS: error= 1.00D-06 at cycle   5 NSaved=   5.
 NSaved= 5 IEnMin= 5 EnMin= -41.0157280344374     IErMin= 5 ErrMin= 1.00D-06
 ErrMax= 1.00D-06  0.00D+00 EMaxC= 1.00D-01 BMatC= 6.18D-11 BMatP= 2.87D-09
 IDIUse=1 WtCom= 1.00D+00 WtEn= 0.00D+00
 Coeff-Com:  0.103D-02-0.241D-01-0.166D-01 0.626D-01 0.977D+00
 Coeff:      0.103D-02-0.241D-01-0.166D-01 0.626D-01 0.977D+00
 Gap=     0.416 Goal=   None    Shift=    0.000
 Gap=     0.308 Goal=   None    Shift=    0.000
 RMSDP=3.09D-07 MaxDP=2.77D-06 DE=-7.84D-10 OVMax= 6.61D-06

 Cycle   6  Pass 1  IDiag  1:
 E= -41.0157280344789     Delta-E=       -0.000000000041 Rises=F Damp=F
 DIIS: error= 2.71D-07 at cycle   6 NSaved=   6.
 NSaved= 6 IEnMin= 6 EnMin= -41.0157280344789     IErMin= 6 ErrMin= 2.71D-07
 ErrMax= 2.71D-07  0.00D+00 EMaxC= 1.00D-01 BMatC= 4.71D-12 BMatP= 6.18D-11
 IDIUse=1 WtCom= 1.00D+00 WtEn= 0.00D+00
 Coeff-Com:  0.407D-03-0.143D-02-0.118D-01-0.658D-01-0.166D+00 0.124D+01
 Coeff:      0.407D-03-0.143D-02-0.118D-01-0.658D-01-0.166D+00 0.124D+01
 Gap=     0.416 Goal=   None    Shift=    0.000
 Gap=     0.308 Goal=   None    Shift=    0.000
 RMSDP=1.32D-07 MaxDP=1.13D-06 DE=-4.15D-11 OVMax= 2.19D-06

 Cycle   7  Pass 1  IDiag  1:
[...]
 Internal  Forces:  Max     0.005116063 RMS     0.001320983
 Leave Link  716 at Thu Sep  5 23:08:23 2019, MaxMem=  2684354560 cpu:         0.2
 (Enter /soft/gaussian/09-e.01/g09/l103.exe)

 GradGradGradGradGradGradGradGradGradGradGradGradGradGradGradGradGradGrad
 Berny optimization.
 Search for a local minimum.
 Step number   8 out of a maximum of   25
 All quantities printed in internal units (Hartrees-Bohrs-Radians)
 Update second derivatives using D2CorN and points    1    2    7    8
 DE= -2.17D-06 DEPred=-2.22D-06 R= 9.77D-01
 TightC=F SS=  1.41D+00  RLast= 2.91D-02 DXNew= 5.0454D-01 8.7369D-02
 Trust test= 9.77D-01 RLast= 2.91D-02 DXMaxT set to 3.00D-01
 The second derivative matrix:
                          R1        R2        A2        R3        A3
           R1           0.34641
           R2           0.00074   0.34626
           A2           0.00000  -0.00003   0.24296
           R3           0.00072   0.00065   0.00000   0.34623
           A3           0.00001  -0.00002   0.04080   0.00002   0.24314
           D3           0.00059   0.00049  -0.06473   0.00059  -0.00074
           R4           0.00389   0.00336  -0.00809   0.00332  -0.00799
           A4          -0.00067  -0.00061   0.04030  -0.00066   0.04019
           D4           0.00082   0.00075   0.06609   0.00081  -0.06126
           A6           0.00058   0.00015  -0.00032   0.00011  -0.00035
           D6          -0.00000  -0.00000  -0.02415  -0.00000   0.02415
           A5           0.00527   0.00471  -0.02123   0.00500  -0.02207
           D5          -0.00000  -0.00000  -0.00211  -0.00000   0.00211
           R5          -0.00000  -0.00000  -0.00000  -0.00000   0.00000
           R6           0.00104   0.00096   0.00154   0.00097   0.00153
                          D3        R4        A4        D4        A6
           D3           0.22087
           R4          -0.01178   0.33200
           A4           0.05794  -0.00226   0.24641
           D4          -0.09973   0.00200  -0.00544   0.22328
           A6          -0.00215  -0.00042   0.00261  -0.00101   0.00557
           D6          -0.01315  -0.00001   0.00000   0.02628   0.00006
           A5          -0.05681  -0.01026   0.02367  -0.02956   0.01172
           D5          -0.00115  -0.00000  -0.00000   0.00230   0.00001
           R5           0.00000  -0.00000  -0.00000  -0.00000   0.00000
           R6           0.00362   0.00990  -0.00127   0.00179   0.00025
                          D6        A5        D5        R5        R6
           D6           0.90146
           A5           0.00006   0.16000
           D5           0.07887  -0.00000   0.00690
           R5           0.00000   0.00000   0.00000   0.00000
           R6           0.00000  -0.00000  -0.00000  -0.00000   0.04995
 ITU=  1  1  1  1  1  1  1  0
     Eigenvalues ---    0.00544   0.09218   0.13402   0.23378   0.31706
     Eigenvalues ---    0.33702   0.34559   0.34560   0.35042   0.38933
     Eigenvalues ---    0.904151000.000001000.000001000.000001000.00000
 RFO step:  Lambda= 0.00000000D+00 EMin= 5.44468451D-03
 Quartic linear search produced a step of -0.04029.
 Variable       Old X    -DE/DX   Delta X   Delta X   Delta X     New X
                                 (Linear)    (Quad)   (Total)
    R1        2.06578   0.00000   0.00000   0.00000   0.00000   2.06578
    R2        2.06579  -0.00000  -0.00000  -0.00000  -0.00000   2.06578
    A2        1.91779   0.00000  -0.00000   0.00002   0.00002   1.91780
    R3        2.06581  -0.00001   0.00000  -0.00002  -0.00002   2.06579
    A3        1.91770   0.00000  -0.00000   0.00007   0.00007   1.91777
    D3        2.11193   0.00002  -0.00001   0.00019   0.00019   2.11212
    R4        2.09123   0.00001  -0.00000   0.00002   0.00002   2.09125
    A4        1.90356  -0.00001   0.00001  -0.00010  -0.00009   1.90346
    D4        4.19744   0.00002  -0.00000   0.00017   0.00016   4.19760
    A6        1.57204  -0.00001  -0.00117   0.00011  -0.00106   1.57098
    D6        3.14159   0.00000   0.00000  -0.00000  -0.00000   3.14159
    A5        1.57080  -0.00001   0.00000   0.00000   0.00000   1.57080
    D5        3.14159  -0.00000   0.00000   0.00000   0.00000   3.14159
    R5        1.88973  -0.00000   0.00000   0.00000   0.00000   1.88973
    R6        3.01816   0.00512   0.00000   0.00000   0.00000   3.01816
         Item               Value     Threshold  Converged?
 Maximum Force            0.000018     0.000450     YES
 RMS     Force            0.000009     0.000300     YES
 Maximum Displacement     0.001065     0.001800     YES
 RMS     Displacement     0.000284     0.001200     YES
 Predicted change in Energy=-7.083192D-09
 Optimization completed.
    -- Stationary point found.
                       ----------------------------
                       !   Optimized Parameters   !
                       ! (Angstroms and Degrees)  !
 ----------------------                            ----------------------
 !      Name          Value   Derivative information (Atomic Units)     !
 ------------------------------------------------------------------------
 !       R1          1.0932   -DE/DX =    0.0                           !
 !       R2          1.0932   -DE/DX =    0.0                           !
 !       A2        109.8811   -DE/DX =    0.0                           !
 !       R3          1.0932   -DE/DX =    0.0                           !
 !       A3        109.8763   -DE/DX =    0.0                           !
 !       D3        121.0048   -DE/DX =    0.0                           !
 !       R4          1.1066   -DE/DX =    0.0                           !
 !       A4        109.0657   -DE/DX =    0.0                           !
 !       D4        240.4957   -DE/DX =    0.0                           !
 !       A6         90.0714   -DE/DX =    0.0                           !
 !       D6        180.0      -DE/DX =    0.0                           !
 !       A5         90.0      -DE/DX =    0.0                           !
 !       D5        180.0      -DE/DX =    0.0                           !
 !       R5          1.0      -DE/DX =    0.0                           !
 !       R6          1.5971   -DE/DX =    0.0051                        !
 ------------------------------------------------------------------------
 Lowest energy point so far.  Saving SCF results.
 GradGradGradGradGradGradGradGradGradGradGradGradGradGradGradGradGradGrad

 Largest change from initial coordinates is atom    6       2.183 Angstoms.
 Leave Link  103 at Thu Sep  5 23:08:23 2019, MaxMem=  2684354560 cpu:         0.1
 (Enter /soft/gaussian/09-e.01/g09/l202.exe)
 ---------------------------------------------------------------------------------------------------
                            Z-MATRIX (ANGSTROMS AND DEGREES)
   CD    Cent   Atom    N1       Length/X        N2       Alpha/Y        N3        Beta/Z          J
 ---------------------------------------------------------------------------------------------------
      1      1  C 
      2      2  H        1   1.093161(     1)
      3      3  H        1   1.093168(     2)      2  109.881(     7)
      4      4  H        1   1.093180(     3)      2  109.876(     8)      3  121.005(    12)      0
      5      5  H        1   1.106631(     4)      2  109.066(     9)      3  240.496(    13)      0
      6         X        5   1.000000(     5)      1   90.000(    10)      2  180.000(    14)      0
      7      6  H        5   1.597143(     6)      6   90.071(    11)      1  180.000(    15)      0
 ---------------------------------------------------------------------------------------------------
                         Z-Matrix orientation:                         
 ---------------------------------------------------------------------
 Center     Atomic      Atomic             Coordinates (Angstroms)
 Number     Number       Type             X           Y           Z
 ---------------------------------------------------------------------
      1          6           0        0.000000    0.000000    0.000000
      2          1           0        0.000000    0.000000    1.093161
      3          1           0        1.028015    0.000000   -0.371753
      4          1           0       -0.529563   -0.881173   -0.371671
      5          1           0       -0.515107    0.910289   -0.361484
      6         -1           0       -0.354234    0.625997   -1.306629
      7          1           0       -1.258854    2.224627   -0.881315
 ---------------------------------------------------------------------
                    Distance matrix (angstroms):
                    1          2          3          4          5
     1  C    0.000000
     2  H    1.093161   0.000000
     3  H    1.093168   1.789634   0.000000
     4  H    1.093180   1.789591   1.789558   0.000000
     5  H    1.106631   1.791635   1.791636   1.791550   0.000000
     6  X    1.491520   2.505264   1.782268   1.782260   1.000000
     7  H    2.703774   3.229897   3.230849   3.230727   1.597143
                    6          7
     6  X    0.000000
     7  H    1.885430   0.000000
 Stoichiometry    CH5(2)
 Framework group  C1[X(CH5)]
 Deg. of freedom    12
 Full point group                 C1      NOp   1
 RotChk:  IX=2 Diff= 4.00D-16
 Largest Abelian subgroup         C1      NOp   1
 Largest concise Abelian subgroup C1      NOp   1
                         Standard orientation:                         
 ---------------------------------------------------------------------
 Center     Atomic      Atomic             Coordinates (Angstroms)
 Number     Number       Type             X           Y           Z
 ---------------------------------------------------------------------
      1          6           0       -0.249029    0.000012    0.000017
      2          1           0       -0.605351    0.988799    0.300575
      3          1           0       -0.606494   -0.754345    0.705835
      4          1           0       -0.606332   -0.233756   -1.006328
      5          1           0        0.857603   -0.000771   -0.000214
      6          1           0        2.454745    0.000004    0.000032
 ---------------------------------------------------------------------
 Rotational constants (GHZ):    156.5751809     49.7729641     49.7721853
 Leave Link  202 at Thu Sep  5 23:08:23 2019, MaxMem=  2684354560 cpu:         0.1
 (Enter /soft/gaussian/09-e.01/g09/l601.exe)
 Copying SCF densities to generalized density rwf, IOpCl= 1 IROHF=0.

 **********************************************************************

            Population analysis using the SCF density.

 **********************************************************************

 Orbital symmetries:
 Alpha Orbitals:
       Occupied  (A) (A) (A) (A) (A) (A)
       Virtual   (A) (A) (A) (A) (A) (A) (A) (A) (A) (A) (A) (A)
                 (A) (A) (A) (A) (A) (A) (A)
 Beta  Orbitals:
       Occupied  (A) (A) (A) (A) (A)
       Virtual   (A) (A) (A) (A) (A) (A) (A) (A) (A) (A) (A) (A)
                 (A) (A) (A) (A) (A) (A) (A) (A)
 The electronic state is 2-A.
 Alpha  occ. eigenvalues --  -10.17120  -0.69555  -0.41442  -0.39316  -0.39314
 Alpha  occ. eigenvalues --   -0.29050
 Alpha virt. eigenvalues --    0.12536   0.17403   0.17404   0.22597   0.53078
 Alpha virt. eigenvalues --    0.53078   0.53402   0.74996   0.89505   0.89508
 Alpha virt. eigenvalues --    0.93435   0.96660   1.15880   1.65122   1.65122
 Alpha virt. eigenvalues --    2.22533   2.23807   2.23808   4.19952
  Beta  occ. eigenvalues --  -10.16934  -0.69093  -0.39420  -0.39198  -0.39196
  Beta virt. eigenvalues --   -0.08423   0.12803   0.17513   0.17514   0.24324
  Beta virt. eigenvalues --    0.53078   0.53079   0.54353   0.89659   0.89662
  Beta virt. eigenvalues --    0.90309   0.93694   0.97502   1.16745   1.65662
  Beta virt. eigenvalues --    1.65662   2.23128   2.24117   2.24118   4.20352
          Condensed to atoms (all electrons):
               1          2          3          4          5          6
     1  C    5.116410   0.382506   0.382490   0.382485   0.366396  -0.027388
     2  H    0.382506   0.536194  -0.026071  -0.026075  -0.027461   0.000816
     3  H    0.382490  -0.026071   0.536204  -0.026078  -0.027447   0.000816
     4  H    0.382485  -0.026075  -0.026078   0.536230  -0.027457   0.000816
     5  H    0.366396  -0.027461  -0.027447  -0.027457   0.571027   0.018815
     6  H   -0.027388   0.000816   0.000816   0.000816   0.018815   1.009609
          Atomic-Atomic Spin Densities.
               1          2          3          4          5          6
     1  C    0.139111  -0.005525  -0.005532  -0.005534   0.014730  -0.036592
     2  H   -0.005525   0.000038   0.001025   0.001025   0.001046   0.001341
     3  H   -0.005532   0.001025   0.000055   0.001027   0.001045   0.001341
     4  H   -0.005534   0.001025   0.001027   0.000055   0.001046   0.001342
     5  H    0.014730   0.001046   0.001045   0.001046  -0.046752  -0.012604
     6  H   -0.036592   0.001341   0.001341   0.001342  -0.012604   0.989128
 Mulliken charges and spin densities:
               1          2
     1  C   -0.602898   0.100658
     2  H    0.160091  -0.001049
     3  H    0.160087  -0.001039
     4  H    0.160079  -0.001039
     5  H    0.126126  -0.041488
     6  H   -0.003484   0.943956
 Sum of Mulliken charges =   0.00000   1.00000
 Mulliken charges and spin densities with hydrogens summed into heavy atoms:
               1          2
     1  C    0.000000   1.000000
 Electronic spatial extent (au):  <R**2>=             62.4299
 Charge=              0.0000 electrons
 Dipole moment (field-independent basis, Debye):
    X=             -0.1855    Y=              0.0000    Z=             -0.0000  Tot=              0.1855
 Quadrupole moment (field-independent basis, Debye-Ang):
   XX=            -10.0208   YY=             -9.5053   ZZ=             -9.5056
   XY=              0.0001   XZ=             -0.0001   YZ=             -0.0000
 Traceless Quadrupole moment (field-independent basis, Debye-Ang):
   XX=             -0.3436   YY=              0.1719   ZZ=              0.1716
   XY=              0.0001   XZ=             -0.0001   YZ=             -0.0000
 Octapole moment (field-independent basis, Debye-Ang**2):
  XXX=             -3.9690  YYY=              0.3598  ZZZ=             -0.4390  XYY=             -1.5593
  XXY=             -0.0009  XXZ=             -0.0002  XZZ=             -1.5597  YZZ=             -0.3587
  YYZ=              0.4392  XYZ=              0.0003
 Hexadecapole moment (field-independent basis, Debye-Ang**3):
 XXXX=            -70.0280 YYYY=            -16.4054 ZZZZ=            -16.4062 XXXY=              0.0005
 XXXZ=             -0.0002 YYYX=             -0.2884 YYYZ=              0.0005 ZZZX=              0.3531
 ZZZY=             -0.0002 XXYY=            -13.8574 XXZZ=            -13.8565 YYZZ=             -5.4689
 XXYZ=             -0.0004 YYXZ=             -0.3533 ZZXY=              0.2889
 N-N= 1.535273301185D+01 E-N=-1.247268430925D+02  KE= 4.059260937646D+01
                          Isotropic Fermi Contact Couplings
        Atom                 a.u.       MegaHertz       Gauss      10(-4) cm-1
     1  C(13)              0.04496      50.54425      18.03544      16.85975
     2  H(1)              -0.00056      -2.49435      -0.89005      -0.83203
     3  H(1)              -0.00055      -2.47374      -0.88269      -0.82515
     4  H(1)              -0.00055      -2.47529      -0.88324      -0.82567
     5  H(1)              -0.00275     -12.29623      -4.38760      -4.10158
     6  H(1)               0.29543    1320.55198     471.20577     440.48873
 --------------------------------------------------------
       Center         ----  Spin Dipole Couplings  ----
                      3XX-RR        3YY-RR        3ZZ-RR
 --------------------------------------------------------
     1   Atom        0.130361     -0.065179     -0.065182
     2   Atom        0.006027      0.002790     -0.008817
     3   Atom        0.006029     -0.002551     -0.003478
     4   Atom        0.006028     -0.009281      0.003253
     5   Atom        0.091278     -0.045639     -0.045639
     6   Atom       -0.006368      0.003184      0.003184
 --------------------------------------------------------
                        XY            XZ            YZ
 --------------------------------------------------------
     1   Atom       -0.000088     -0.000014      0.000001
     2   Atom       -0.006824     -0.002074      0.003887
     3   Atom        0.005205     -0.004873     -0.006966
     4   Atom        0.001611      0.006946      0.003077
     5   Atom        0.000002     -0.000000      0.000000
     6   Atom       -0.000003     -0.000001      0.000000
 --------------------------------------------------------


 ---------------------------------------------------------------------------------
              Anisotropic Spin Dipole Couplings in Principal Axis System
 ---------------------------------------------------------------------------------

       Atom             a.u.   MegaHertz   Gauss  10(-4) cm-1        Axes

              Baa    -0.0652    -8.747    -3.121    -2.918 -0.0001 -0.3583  0.9336
     1 C(13)  Bbb    -0.0652    -8.746    -3.121    -2.917  0.0004  0.9336  0.3583
              Bcc     0.1304    17.493     6.242     5.835  1.0000 -0.0005 -0.0001
 
              Baa    -0.0100    -5.335    -1.904    -1.779 -0.0000 -0.2908  0.9568
     2 H(1)   Bbb    -0.0022    -1.177    -0.420    -0.393  0.6547  0.7232  0.2199
              Bcc     0.0122     6.512     2.324     2.172  0.7559 -0.6264 -0.1904
 
              Baa    -0.0100    -5.333    -1.903    -1.779  0.0002  0.6832  0.7302
     3 H(1)   Bbb    -0.0022    -1.178    -0.420    -0.393  0.6546 -0.5521  0.5164
              Bcc     0.0122     6.511     2.323     2.172  0.7560  0.4779 -0.4473
 
              Baa    -0.0100    -5.333    -1.903    -1.779  0.0002  0.9740 -0.2263
     4 H(1)   Bbb    -0.0022    -1.177    -0.420    -0.393 -0.6546  0.1712  0.7363
              Bcc     0.0122     6.511     2.323     2.172  0.7560  0.1480  0.6376
 
              Baa    -0.0456   -24.351    -8.689    -8.123  0.0000 -0.3065  0.9519
     5 H(1)   Bbb    -0.0456   -24.351    -8.689    -8.123 -0.0000  0.9519  0.3065
              Bcc     0.0913    48.702    17.378    16.245  1.0000  0.0000 -0.0000
 
              Baa    -0.0064    -3.398    -1.212    -1.133  1.0000  0.0004  0.0001
     6 H(1)   Bbb     0.0032     1.699     0.606     0.567  0.0001 -0.4279  0.9038
              Bcc     0.0032     1.699     0.606     0.567 -0.0004  0.9038  0.4279
 

 ---------------------------------------------------------------------------------

 No NMR shielding tensors so no spin-rotation constants.
 Leave Link  601 at Thu Sep  5 23:08:24 2019, MaxMem=  2684354560 cpu:         3.1
 (Enter /soft/gaussian/09-e.01/g09/l9999.exe)
 1\1\GINC-B442\POpt\UB3LYP\6-31G(d)\C1H5(2)\ELLIOTT\05-Sep-2019\1\\#P b
 3lyp/6-31g* # SCF=(xqc) # POpt=() # int=ultrafine\\comment:\\0,2\C\H,1
 ,R1\H,1,R2,2,A2\H,1,R3,2,A3,3,D3,0\H,1,R4,2,A4,3,D4,0\X,5,R5,1,A5,2,D5
 ,0\H,5,R6,6,A6,1,D6,0\\R1=1.09316115\R2=1.09316765\A2=109.88111634\R3=
 1.09318019\A3=109.87630004\D3=121.00480952\R4=1.10663145\A4=109.065749
 29\D4=240.49568503\A6=90.07137311\D6=179.99999123\A5=90.\D5=180.\R5=1.
 \R6=1.597143\\Version=ES64L-G09RevE.01\State=2-A\HF=-41.015746\S2=0.75
 1108\S2-1=0.\S2A=0.75\RMSD=2.340e-09\RMSF=1.705e-03\Dipole=0.0339728,-
 0.0600718,0.0237961\Quadrupole=0.0446896,-0.1317629,0.0870734,0.146664
 6,-0.0582051,0.1027842\PG=C01 [X(C1H5)]\\@


 IT IS DOUBTED WHETHER A MAN EVER BRINGS HIS FACULTIES TO BEAR WITH THEIR FULL FORCE
 ON A SUBJECT UNTIL HE WRITES UPON IT.

                          -- CICERO
 Job cpu time:       0 days  0 hours  1 minutes 59.8 seconds.
 File lengths (MBytes):  RWF=     72 Int=      0 D2E=      0 Chk=      2 Scr=      2
 Normal termination of Gaussian 09 at Thu Sep  5 23:08:24 2019.
