[Molden Format]
[Molpro variables]
_NUMVAR=  685.0000000000000    
_EV2006= 0.3674930886769165E-01
_EV= 0.3674932534394180E-01
_KJOULE= 0.3808798324128737E-03
_KJOULE/MOL= 0.3808798324128737E-03
_CM= 0.4556335267302901E-05
_CM-1= 0.4556335267302901E-05
_KCAL= 0.1593601117815568E-02
_KCAL/MOL= 0.1593601117815568E-02
_KELVIN2006= 0.3166828861084835E-05
_KELVIN= 0.3166814820820034E-05
_HERTZ2006= 0.1519829850815779E-15
_HERTZ= 0.1519829846011223E-15
_HZ2006= 0.1519829850815779E-15
_HZ= 0.1519829846011223E-15
_TOA2006= 0.5291772490000000    
_TOA= 0.5291772090000000    
_TOANG2006= 0.5291772490000000    
_TOANG= 0.5291772090000000    
_TORAD= 0.1745329251994330E-01
_TOCM=  219474.6306700000    
_TODEBYE=  2.541580000000000    
_TOEV2006=  27.21139610000000    
_TOEV=  27.21138390000000    
_TOHERTZ2006=  6579683899900000.    
_TOHERTZ=  6579683920700000.    
_TOHZ2006=  6579683899900000.    
_TOHZ=  6579683920700000.    
_TOK2006=  315773.3000000000    
_TOK=  315774.7000000000    
_TOKCAL=  627.5096000000000    
_TOKELVIN2006=  315773.3000000000    
_TOKELVIN=  315774.7000000000    
_TOKJ=  2625.500000000000    
_TOKJOULE=  2625.500000000000    
_ANG2006=  1.889725988578923    
_ANG=  1.889726131421507    
_ANGSTROM2006=  1.889725988578923    
_ANGSTROM=  1.889726131421507    
_IGNORE_UNDEF=  2.000000000000000    
_STRICTCHECK=  0.000000000000000    
_SEW_ONEEL=  0.000000000000000    
_CPPDONE=FALSE
_DKROLL_DONE=  0.000000000000000    
_FOCKDONE=  0.000000000000000    
_GRADONE=FALSE
_HESSDONE=FALSE
_INTDONE=TRUE
_SCFDONE=FALSE
_MODUL_CUDA=FALSE
_MODUL_SLATER=FALSE
_MODUL_MRCC=FALSE
_MRCC_EXEC=
_FITC_AO_SAVED=FALSE
_FITC_MO_SAVED=FALSE
_SHARED_FS=TRUE
_LSTYP=SEWARD
_INTYP=INTS
_GEOMTYP=ZMAT
_GRADTYP=ALASKA
_DIRECT=FALSE
_SYNCM=  0.000000000000000    
_BASIS=CC-PVDZ
_ZORIENT=  1.000000000000000    
_NELEC=  10.00000000000000    
_SPIN=  0.000000000000000    
!SPIN=  0.000000000000000    
_QSDSTEP=  0.000000000000000    
_QSDIRC=  0.000000000000000    
_PROGRAM=RS2
_CPUSTEP= 0.3999999999999998E-01
_SYSSTEP=  0.000000000000000    
_WALLSTEP=  1.200000000000000    
!DFMP2=  0.000000000000000    
!DFSCF=  0.000000000000000    
!SCSGRD=  0.000000000000000    
_BASINP=  610.0000000000000    
_CPUTOT= 0.4200000000000000    
_DFTEXFAC=  1.000000000000000    
_DMX= 0.4473141773904684E-06
_DMY=-0.6669871193834928E-06
_DMZ= 0.3230676403849622    
_EMP2= -40.21497968633091    
_ENERGR= -40.07876070765574    
_ENERGU= -40.20645392662060    
_ENERGY= -40.21497968633091    
_ENUC=  11.47462103568843    
_GRADEXFAC=  9999.000000000000    
_GRADMETHOD=TRUE
!GRID_FREEZE= -1.000000000000000    
_ITERATIONS=  5.000000000000000    
_LASTNELEC=  2.000000000000000    
_LASTSPIN=  0.000000000000000    
_LASTSYM=  1.000000000000000    
_MPP_PROG=  1.000000000000000    
_NPROC_MPP=  4.000000000000000    
_NPROC_SMP=  1.000000000000000    
_NUMSTEP=  0.000000000000000    
_ORBITAL=  2141.200000000000    
_PI=  3.141592653589793    
!MCACT=  2.000000000000000    
!MCCLOSED=  4.000000000000000    
!MCFREEZE=  0.000000000000000    
!MCMS2=  0.000000000000000    
!MCNEL=  2.000000000000000    
!MCNSTSYM=  1.000000000000000    
!MCSTATE=  1.000000000000000    
!MCSYM=  1.000000000000000    
!MCWEIGHT=  1.000000000000000    
_SEIG_MIN= 0.1491320263838798E-01
_SEWPROP=TRUE
_STATUS=  1.000000000000000    
_SYSTOT= 0.1400000000000000    
_VERSION=  2010001.000000000    
_WALLTOT=  8.830000000000000    
_DATE=30-Aug-19
_LASTORB=MCSCF
_MACHINE=Linux-2.6.34-12-desktop/tt106(x86_64) 64 bit mpp version
_OUTPUT=/home/carlo/qm/combustion/test_diss/newalg/ch4_ch3_h_vrc_test1/dist_2.4/molpro.xml
_PGROUP=C1
_TIME=07:48:09
_LIBMOL=/programs/molpro2010p/bin/../lib/
!SURFREC=  0.000000000000000    
!POLYREC=  0.000000000000000    
!DIPREC=  0.000000000000000    
!VSCFREC=  0.000000000000000    
!VCIREC=  0.000000000000000    
!PVCIREC=  0.000000000000000    
!VMP2REC=  0.000000000000000    
!VMCSCFREC=  0.000000000000000    
!GAREC=  0.000000000000000    
!SCFORB=  21002.00000000000    
!MCORB=  21412.00000000000    
!CIOCC=  6.000000000000000    
!CICORE=  1.000000000000000    
!CICLOS=  4.000000000000000    
!CIISTSYM=  1.000000000000000    
!CIISTMS2=  0.000000000000000    
!CIISTNEL=  8.000000000000000    
!NEWMOL=  0.000000000000000    
!NEWSYM=  0.000000000000000    
_SLFILES=slscratch
_NGSSTO=  9.000000000000000    
_SIN=SIN
_COS=COS
_TAN=TAN
_ACOS=ACOS
_ASIN=ASIN
_ATAN=ATAN
_COSH=COSH
_SINH=SINH
_TANH=TANH
_ABS=ABS
_MOD=MOD
_ERF=ERF
_REFC=REFC
_ERFC=ERFC
_HYPOT=HYPOT
_J0=J0
_J1=J1
_JN=JN
_GAMMA=GAMMA
_LGAMMA=LGAMMA
_Y0=Y0
_Y1=Y1
_YN=YN
_EXP=EXP
_LOG=LOG
_LOG10=LOG10
_SQRT=SQRT
_INT=INT
_NINT=NINT
_MAX=MAX
_MIN=MIN
_COSMO=  0.000000000000000    
_COSMOIT=  0.000000000000000    
_COSMOES=  0.000000000000000    
_COSMOEDS=  0.000000000000000    
_COSMOEC=  0.000000000000000    
_COSMOEDCORR=  0.000000000000000    
_FEPSI=  1.000000000000000    
_SL_IsMM=  0.000000000000000    
_SL_NSYM=  0.000000000000000    
_SL_System_BitSw=  0.000000000000000    
_SL_Unique_atoms=  0.000000000000000    
_SL_GRAD=  0.000000000000000    
_SL_MAXUPD_Hess=  5.000000000000000    
_SL_N_PRINT_COD=  5.000000000000000    
_SL_PRINT_CODES=  0.000000000000000    
_SL_BasType=  0.000000000000000    
_SL_Energy_Pred=  0.000000000000000    
_SL_New_Coords=  0.000000000000000    
_SL_Total_Nuclea=  0.000000000000000    
_SL_Highest_Mltp=  0.000000000000000    
_SL_Ref_Geom=  0.000000000000000    
!LATTICE= -1.000000000000000    
!NEWLATTICE=  0.000000000000000    
!LATGRAD_VAR=FALSE
!SEW_LATTICE=  1.000000000000000    
!LOCAL=  0.000000000000000    
!SAVEDOM= -1.000000000000000    
!RESTDOM= -1.000000000000000    
!SAVEDOM_HF= -1.000000000000000    
!RESTDOM_HF= -1.000000000000000    
!HESSREC=  0.000000000000000    
!FREQREC=  0.000000000000000    
!NMODREC=  0.000000000000000    
!GTASKS=  0.000000000000000    
!HTASKS=  0.000000000000000    
!THRCHG= 0.1000000000000000    
!DEBUG= -1.000000000000000    
!CFIT_CPHF=  0.000000000000000    
!RDOMAUX_CPHF=  3.000000000000000    
!THRAO_CPHF= 0.1000000000000000E-09
!THRMO_CPHF= 0.1000000000000000E-08
!THROV_CPHF= 0.1000000000000000E-11
!THRSW_CPHF= 0.1000000000000000E-09
!THRPROD_CPHF= 0.1000000000000000E-08
!THRAOPR_CPHF= 0.1000000000000000E-11
!CFIT_SCFGRD=  0.000000000000000    
!RDOMAUX_SCFGRD=  5.000000000000000    
!THRAO_SCFGRD= 0.1000000000000000E-09
!THRMO_SCFGRD= 0.1000000000000000E-08
!THROV_SCFGRD= 0.1000000000000000E-11
!THRSW_SCFGRD= 0.1000000000000000E-09
!THRPROD_SCFGRD= 0.1000000000000000E-08
!THRAOPR_SCFGRD= 0.1000000000000000E-11
!LOCFIT_SCF=  0.000000000000000    
!LOCFIT_MP2= -1.000000000000000    
_RIDOM=  0.000000000000000    
!CC2_METHOD=  0.000000000000000    
_BASIS2006=FALSE
_SVDDEL= -1.000000000000000    
_SVDDELA= -1.000000000000000    
_SVDDELP= -1.000000000000000    
_SVDDELF= -1.000000000000000    
_SVDDELS= -1.000000000000000    
_SVDDEL_ABS= -1.000000000000000    
_SVDDELA_ABS= -1.000000000000000    
_SVDDELP_ABS= -1.000000000000000    
_SVDDELF_ABS= -1.000000000000000    
_SVDDELS_ABS= -1.000000000000000    
_MAXBASIS=  0.000000000000000    
!OPT_CONICAL=  0.000000000000000    
!CLEARSP_JGRID=  0.000000000000000    
RCH1=  1.091347574664256    
RCH2=  1.091349805567277    
RCH3=  1.091350867777255    
AHCC1=  118.8405498754158    
AHCC2=  118.8407434506793    
AHCC3=  96.22307745111263    
B1=  158.7329544273973    
B2= -100.6334147484324    
RCH4=  2.400000000000000    
GX1= 0.1440005320575699E-06
GY1= 0.3301203322404744E-06
GZ1= 0.2428114162729321    
GX2= 0.9366898286460725    
GY2=  1.823708943253210    
GZ2= 0.4663706414746897    
GX3=  1.111038737816664    
GY3= -1.723054034388965    
GZ3= 0.4663593686222828    
GX4= -2.047729035965410    
GY4=-0.1006628115269694    
GZ4= 0.4663672345782783    
GX5=-0.1246462949772154E-05
GY5= 0.3968822107680570E-05
GZ5= -4.292531299137011    
CBSEN= -40.21497968633091    
[Atoms] Angs
C     1    6         0.0000000762        0.0000001747        0.1284902676
H     2    1         0.4956749092        0.9650652086        0.2467927144
H     3    1         0.5879363784       -0.9118009249        0.2467867491
H     4    1        -1.0836115360       -0.0532684657        0.2467909116
H     5    1        -0.0000006596        0.0000021002       -2.2715097324
[GTO]
  1 0
 s    9  1.00
  0.6665000000D+04  0.6920001793D-03
  0.1000000000D+04  0.5329001381D-02
  0.2280000000D+03  0.2707700701D-01
  0.6471000000D+02  0.1017180264D+00
  0.2106000000D+02  0.2747400712D+00
  0.7495000000D+01  0.4485641162D+00
  0.2797000000D+01  0.2850740738D+00
  0.5215000000D+00  0.1520400394D-01
  0.1596000000D+00 -0.3191000827D-02
 s    9  1.00
  0.6665000000D+04 -0.1460000642D-03
  0.1000000000D+04 -0.1154000508D-02
  0.2280000000D+03 -0.5725002519D-02
  0.6471000000D+02 -0.2331201026D-01
  0.2106000000D+02 -0.6395502813D-01
  0.7495000000D+01 -0.1499810660D+00
  0.2797000000D+01 -0.1272620560D+00
  0.5215000000D+00  0.5445292395D+00
  0.1596000000D+00  0.5804962554D+00
 s    9  1.00
  0.6665000000D+04  0.0000000000D+00
  0.1000000000D+04  0.0000000000D+00
  0.2280000000D+03  0.0000000000D+00
  0.6471000000D+02  0.0000000000D+00
  0.2106000000D+02  0.0000000000D+00
  0.7495000000D+01  0.0000000000D+00
  0.2797000000D+01  0.0000000000D+00
  0.5215000000D+00  0.0000000000D+00
  0.1596000000D+00  0.1000000000D+01
 p    4  1.00
  0.9439000000D+01  0.3810902127D-01
  0.2002000000D+01  0.2094801169D+00
  0.5456000000D+00  0.5085572839D+00
  0.1517000000D+00  0.4688422617D+00
 p    4  1.00
  0.9439000000D+01  0.0000000000D+00
  0.2002000000D+01  0.0000000000D+00
  0.5456000000D+00  0.0000000000D+00
  0.1517000000D+00  0.1000000000D+01
 d    1  1.00
  0.5500000000D+00  0.1000000000D+01
  
  2 0
 s    4  1.00
  0.1301000000D+02  0.1968498999D-01
  0.1962000000D+01  0.1379769298D+00
  0.4446000000D+00  0.4781477569D+00
  0.1220000000D+00  0.5012397451D+00
 s    4  1.00
  0.1301000000D+02  0.0000000000D+00
  0.1962000000D+01  0.0000000000D+00
  0.4446000000D+00  0.0000000000D+00
  0.1220000000D+00  0.1000000000D+01
 p    1  1.00
  0.7270000000D+00  0.1000000000D+01
  
  3 0
 s    4  1.00
  0.1301000000D+02  0.1968498999D-01
  0.1962000000D+01  0.1379769298D+00
  0.4446000000D+00  0.4781477569D+00
  0.1220000000D+00  0.5012397451D+00
 s    4  1.00
  0.1301000000D+02  0.0000000000D+00
  0.1962000000D+01  0.0000000000D+00
  0.4446000000D+00  0.0000000000D+00
  0.1220000000D+00  0.1000000000D+01
 p    1  1.00
  0.7270000000D+00  0.1000000000D+01
  
  4 0
 s    4  1.00
  0.1301000000D+02  0.1968498999D-01
  0.1962000000D+01  0.1379769298D+00
  0.4446000000D+00  0.4781477569D+00
  0.1220000000D+00  0.5012397451D+00
 s    4  1.00
  0.1301000000D+02  0.0000000000D+00
  0.1962000000D+01  0.0000000000D+00
  0.4446000000D+00  0.0000000000D+00
  0.1220000000D+00  0.1000000000D+01
 p    1  1.00
  0.7270000000D+00  0.1000000000D+01
  
  5 0
 s    4  1.00
  0.1301000000D+02  0.1968498999D-01
  0.1962000000D+01  0.1379769298D+00
  0.4446000000D+00  0.4781477569D+00
  0.1220000000D+00  0.5012397451D+00
 s    4  1.00
  0.1301000000D+02  0.0000000000D+00
  0.1962000000D+01  0.0000000000D+00
  0.4446000000D+00  0.0000000000D+00
  0.1220000000D+00  0.1000000000D+01
 p    1  1.00
  0.7270000000D+00  0.1000000000D+01
 
 
[MO]
 Sym=      1.1
 Ene=     -11.2577
 Spin= Alpha
 Occup=    2.000000
1 1.00129857418144
2 0.007396165980682
3 -0.007739934517744
4 0.000000004265929
5 0.000000002547322
6 0.000311733391427
7 -0.000000006498957
8 -0.000000002120900
9 -0.000005111446496
10 0.000354998248777
11 0.000354999020741
12 -0.000709997269517
13 0.000000004683056
14 -0.000000000640501
15 0.000000003965599
16 -0.000474723698237
17 0.001440958592272
18 0.000215815529307
19 0.000420188663966
20 0.000086425074530
21 -0.000474711988205
22 0.001440945939160
23 0.000255987029372
24 -0.000396996469118
25 0.000086421928931
26 -0.000474716078495
27 0.001440943266543
28 -0.000471804589755
29 -0.000023191745496
30 0.000086424200195
31 -0.000110631356196
32 0.000329344931470
33 0.000000000030970
34 -0.000000000048955
35 0.000224933114351
 Sym=      2.1
 Ene=      -0.9076
 Spin= Alpha
 Occup=    2.000000
1 -0.024895016616805
2 0.76333028448170
3 -0.14648280724526
4 0.000001018340110
5 0.000000480675973
6 0.057292741544174
7 -0.000000502010370
8 -0.000000274426868
9 -0.011013776833975
10 0.002070987198072
11 0.002071073526033
12 -0.004142060724105
13 0.000000033570273
14 0.000000006942891
15 0.000000032294398
16 0.34689206248500
17 -0.14515741847581
18 -0.012762784263060
19 -0.024848842655541
20 -0.001410440450034
21 0.34689028452277
22 -0.14515659632513
23 -0.015138278813198
24 0.023477271894882
25 -0.001410268509148
26 0.34688927927597
27 -0.14515621530506
28 0.027901013388778
29 0.001371581060642
30 -0.001410371379577
31 0.009853854490011
32 -0.003786324687497
33 0.000000002499165
34 -0.000000000025271
35 0.001189117322034
 Sym=      3.1
 Ene=      -0.5762
 Spin= Alpha
 Occup=    2.000000
1 -0.000000018897667
2 -0.000000849424220
3 -0.000000640689165
4 0.34827282576463
5 0.54386416973911
6 0.000001386966671
7 -0.064486713844749
8 -0.10070279869504
9 -0.000000347208199
10 -0.013473264687788
11 0.013473207734319
12 0.000000056953469
13 0.017848599029439
14 0.004242956893095
15 0.006625746001409
16 0.63101738878719
17 -0.18131814318098
18 -0.009137146819363
19 -0.020376440026441
20 -0.003019892311793
21 -0.26338609634380
22 0.075681864067528
23 0.014559040198430
24 -0.001687471452679
25 0.001260449006631
26 -0.36763250883584
27 0.10563624445867
28 -0.013474237062985
29 0.009489454504787
30 0.001759393100556
31 -0.000000096474633
32 0.000000051230968
33 0.000420764177969
34 0.000657068673640
35 -0.000000007943081
 Sym=      4.1
 Ene=      -0.5762
 Spin= Alpha
 Occup=    2.000000
1 -0.000000001314622
2 -0.000000541551169
3 -0.000000180851049
4 0.54386358382243
5 -0.34827284738067
6 -0.000001530208624
7 -0.10070203040584
8 0.064486426820618
9 0.000000262566717
10 -0.015457255434410
11 0.015457284334797
12 -0.000000028900388
13 -0.015557658222872
14 0.006625665318966
15 -0.004242818353649
16 -0.060186804380071
17 0.017294148177358
18 0.011993515353696
19 -0.003768959856878
20 0.000288011574794
21 0.57657043723100
22 -0.16567274123723
23 -0.006695517991700
24 0.019927220018741
25 -0.002759186338376
26 -0.51638379231093
27 0.14837851493553
28 -0.017872470089130
29 -0.008106042970733
30 0.002471213151987
31 0.000000038678828
32 -0.000000015791226
33 0.000657071594713
34 -0.000420768755540
35 0.000000002156644
 Sym=      5.1
 Ene=      -0.2656
 Spin= Alpha
 Occup=    1.599281
1 0.001619550721084
2 -0.037600936495800
3 -0.031501608007390
4 0.000000500026684
5 -0.000001841139303
6 0.54770089337722
7 0.000000010718090
8 -0.000000209231291
9 0.061162290877517
10 0.005865193133178
11 0.005865189155066
12 -0.011730382288243
13 0.000000000990903
14 0.000000018945857
15 0.000000052391086
16 0.051784958188127
17 -0.012329997303600
18 -0.000847567678464
19 -0.001650258689293
20 0.012109687057757
21 0.051785130710376
22 -0.012329909885942
23 -0.001005334195546
24 0.001559100914937
25 0.012109667244237
26 0.051785075857611
27 -0.012329859274174
28 0.001852933817744
29 0.000091043950519
30 0.012109653175253
31 -0.62992549580610
32 -0.046722457564543
33 -0.000000002900488
34 -0.000000000155102
35 -0.000670603701771
 Sym=      6.1
 Ene=       0.0054
 Spin= Alpha
 Occup=    0.400719
1 0.002938235654968
2 -0.11971500130923
3 -0.062033053511324
4 0.000000624896323
5 -0.000002070096816
6 0.71121817914194
7 0.000000052452049
8 -0.000000260065049
9 0.076519723441646
10 0.005112957775059
11 0.005112956385509
12 -0.010225914160567
13 0.000000006605331
14 0.000000028633759
15 0.000000075841999
16 0.025708974167385
17 -0.006033150532516
18 0.000046600165123
19 0.000090661926801
20 0.013862193122464
21 0.025708589223295
22 -0.006033071973826
23 0.000055281022802
24 -0.000085753438703
25 0.013862155769709
26 0.025708851185119
27 -0.006033036294350
28 -0.000101838630546
29 -0.000005048710080
30 0.013862141700854
31 0.85194573581347
32 -0.084816185580648
33 0.000000002693116
34 -0.000000001114112
35 -0.002051359385293
 Sym=      7.1
 Ene=       0.1992
 Spin= Alpha
 Occup=    0.000000
1 -0.082543277510145
2 0.20451558478363
3 2.06414411447940
4 -0.000001172790467
5 -0.000001364778888
6 0.094155375732960
7 -0.000001239701717
8 -0.000002225229877
9 0.11226687295384
10 0.011275741052879
11 0.011275742281705
12 -0.022551483334584
13 0.000000072310881
14 -0.000000028629653
15 0.000000123611502
16 -0.065334079965571
17 -1.00648697462592
18 0.007456006462644
19 0.014516764483036
20 0.004459568190892
21 -0.065334510851420
22 -1.00648878326668
23 0.008843804159473
24 -0.013715534569610
25 0.004459438644457
26 -0.065335042065370
27 -1.00649074407154
28 -0.016299904839245
29 -0.000801283461016
30 0.004459499981723
31 0.097680086807953
32 -0.005297111773059
33 -0.000000013419203
34 0.000000019206904
35 -0.001558253016921
 Sym=      8.1
 Ene=       0.2653
 Spin= Alpha
 Occup=    0.000000
1 0.000000182013007
2 0.000000179122624
3 -0.000007171963832
4 -0.44413997611145
5 0.091797803425209
6 0.000000474313006
7 -1.19069145927504
8 0.24609861084090
9 0.000001610929459
10 0.018109457895570
11 -0.018109663217670
12 0.000000205322099
13 0.007660870659184
14 -0.010455698971940
15 0.002160959624268
16 0.009444171961457
17 0.57039771668896
18 -0.006791517001881
19 -0.004515742539217
20 -0.000312556289280
21 0.024756606207312
22 1.49506174762619
23 -0.012587970525906
24 0.014087826970094
25 -0.000819154240498
26 -0.034202149304537
27 -2.06544969328820
28 -0.025800627074807
29 -0.000233940462172
30 0.001131741877221
31 -0.000000443324983
32 0.000000019319524
33 0.002306677155404
34 -0.000476775926143
35 0.000000028402417
 Sym=      9.1
 Ene=       0.2653
 Spin= Alpha
 Occup=    0.000000
1 0.000000147678698
2 -0.000000227395666
3 -0.000008459216276
4 -0.091797435354770
5 -0.44413958186676
6 -0.000001479772352
7 -0.24610096855887
8 -1.19069287087266
9 -0.000004008668857
10 0.006634531288971
11 -0.006634626865591
12 0.000000095576620
13 -0.020911349901024
14 -0.002161147543218
15 -0.010455733059874
16 0.034038626517540
17 2.05567258993379
18 -0.010741201277157
19 -0.023328835242389
20 -0.001126459167699
21 -0.025199753850417
22 -1.52180603755478
23 0.007862393629727
24 -0.017532038763422
25 0.000833798377943
26 -0.008839737947064
27 -0.53385594833203
28 -0.006459290898403
29 -0.004319330695966
30 0.000292506292593
31 -0.000000044059625
32 -0.000000301368358
33 0.000476742783015
34 0.002306685021691
35 0.000000015149919
 Sym=     10.1
 Ene=       0.6056
 Spin= Alpha
 Occup=    0.000000
1 -0.000000624138550
2 -0.000001535992578
3 0.000005724603586
4 0.13659324612014
5 -0.42338029213233
6 -0.000001967687425
7 -0.49764825896141
8 1.54250343509237
9 0.000007776612318
10 -0.017577915346498
11 0.017577407246241
12 0.000000508100257
13 -0.12209405321402
14 0.006439578531952
15 -0.019960703846483
16 -0.93736546349840
17 0.34686040176116
18 -0.043937361636806
19 0.019560583228419
20 -0.004939616146703
21 1.28235412369508
22 -0.47452484801767
23 0.016672708190265
24 0.006398650975839
25 0.006757671639187
26 -0.34499951511454
27 0.12766900125590
28 -0.002232707462709
29 0.065469969947873
30 -0.001817858776486
31 -0.000005139980534
32 0.000006782341323
33 -0.011824954238431
34 0.036652230945976
35 -0.000000048556235
 Sym=     11.1
 Ene=       0.6056
 Spin= Alpha
 Occup=    0.000000
1 -0.000000249410741
2 -0.000001573206402
3 0.000006612782385
4 -0.42337995665799
5 -0.13659412818564
6 0.000000705315205
7 1.54250350466138
8 0.49765701567516
9 -0.000001086895014
10 0.10573718094860
11 -0.10573644658444
12 -0.000000734364156
13 -0.020296335543738
14 -0.019961176765201
15 -0.006440281546490
16 -0.93954941642977
17 0.34766321567410
18 0.041391922317928
19 -0.024272289500419
20 -0.004951303585196
21 -0.34200153529053
22 0.12655548410407
23 0.054554780402781
24 0.036337886710787
25 -0.001802139268122
26 1.28155999263782
27 -0.47423188207952
28 -0.004516964457679
29 0.017432199724865
30 0.006753678966971
31 0.000003993932773
32 -0.000004428941876
33 0.036652329961159
34 0.011825046370574
35 -0.000000071565169
 Sym=     12.1
 Ene=       0.6568
 Spin= Alpha
 Occup=    0.000000
1 0.013138527712960
2 -0.12675882694963
3 -0.13542008231053
4 0.000003670737162
5 -0.000000756383094
6 0.37171544571060
7 -0.000012286310392
8 0.000003659730662
9 -0.82013090504705
10 0.066574886750927
11 0.066575142035247
12 -0.13315002878617
13 -0.000000600144647
14 -0.000000158879964
15 0.000000516840833
16 0.56982006372513
17 -0.31664010386490
18 0.026376351692261
19 0.051354950803401
20 0.026192057756350
21 0.56982904263244
22 -0.31664780436762
23 0.031286369970151
24 -0.048520692189333
25 0.026191886239841
26 0.56981807629994
27 -0.31664900430463
28 -0.057663351742269
29 -0.002834333262075
30 0.026191762886390
31 1.63930703871612
32 -1.98906399232280
33 -0.000000199983376
34 0.000000117965736
35 0.013726715334256
 Sym=     13.1
 Ene=       0.7368
 Spin= Alpha
 Occup=    0.000000
1 -0.096134473150512
2 -0.17179113269033
3 0.61381298862935
4 -0.000003774542242
5 0.000001960987463
6 -0.79514176811406
7 0.000009286042966
8 -0.000001941944099
9 0.85421169636731
10 -0.078873773266204
11 -0.078872844392459
12 0.15774661765866
13 -0.000000105932637
14 0.000000244062205
15 -0.000000807102020
16 -0.72848167768287
17 0.53228859657911
18 -0.023761884808980
19 -0.046263803816153
20 -0.009636356967712
21 -0.72848501258133
22 0.53229365365210
23 -0.028184664802657
24 0.043710220760462
25 -0.009635577472497
26 -0.72848407077251
27 0.53230096953250
28 0.051947078938230
29 0.002553616213532
30 -0.009635751106752
31 1.35548800577794
32 -1.49871978194569
33 0.000000118259693
34 -0.000000118849605
35 0.041578043529486
 Sym=     14.1
 Ene=       0.7858
 Spin= Alpha
 Occup=    0.000000
1 0.040352166439913
2 -0.021065939156061
3 0.040785009494696
4 0.000004878947315
5 0.000006977293952
6 -1.19497327881270
7 -0.000011463888370
8 -0.000009617489946
9 1.49005915223509
10 0.093051785757629
11 0.093049955664238
12 -0.18610174142187
13 -0.000000377549910
14 -0.000000334010393
15 0.000000925633062
16 0.66714994663945
17 -0.65556182874399
18 0.044785632087739
19 0.087196964489023
20 -0.038421575576639
21 0.66715630546923
22 -0.65557301250950
23 0.053122217421012
24 -0.082384272997123
25 -0.038421731824169
26 0.66715544551321
27 -0.65558178066012
28 -0.097909077299451
29 -0.004812608466500
30 -0.038420971410990
31 -0.15593469054099
32 0.54759523362481
33 -0.000000178892202
34 0.000000067905621
35 -0.14690898369158
 Sym=     15.1
 Ene=       0.8852
 Spin= Alpha
 Occup=    0.000000
1 0.000001260271588
2 0.000004490779917
3 -0.000005551652098
4 -1.15192454066968
5 0.49951114766160
6 0.000001161324493
7 2.11627120878451
8 -0.91768225180672
9 -0.000002837427208
10 -0.24199650018847
11 0.24199802755834
12 -0.000001527369868
13 -0.17383705133148
14 0.057814171089542
15 -0.025069162431623
16 0.039809503546091
17 -0.13117383134906
18 -0.053560333183882
19 0.048161000833732
20 0.002341443043136
21 0.50708924193884
22 -1.67098681118136
23 0.094231532428116
24 -0.21767981896005
25 0.029825974673966
26 -0.54688956492024
27 1.80215392170313
28 0.25055892065206
29 0.043232306936561
30 -0.032168375533640
31 -0.000001991591994
32 0.000003182086394
33 0.020159098279606
34 -0.008741548845008
35 -0.000000727027393
 Sym=     16.1
 Ene=       0.8852
 Spin= Alpha
 Occup=    0.000000
1 -0.000002428382501
2 -0.000008989838786
3 0.000010854513393
4 0.49951059377910
5 1.15192249205697
6 0.000006044418080
7 -0.91768275185478
8 -2.11626953582262
9 -0.000009072647663
10 0.15054617336628
11 -0.15054782518413
12 0.000001651817846
13 -0.27943594629579
14 -0.025071410785187
15 -0.057815153967199
16 -0.60851850203254
17 2.00522328315731
18 -0.13235269331607
19 -0.24771473668797
20 -0.035793574868274
21 0.33872641889595
22 -1.11620643987938
23 0.13348848060608
24 -0.099921855849139
25 0.019923970151652
26 0.26978104423503
27 -0.88901059582727
28 -0.12742288531717
29 0.056405954093049
30 0.015869182459414
31 -0.000000748458170
32 -0.000000907832797
33 -0.008741722515314
34 -0.020159125418065
35 0.000001252878530
 Sym=     17.1
 Ene=       1.0497
 Spin= Alpha
 Occup=    0.000000
1 0.77001184149570
2 3.51184123051866
3 -5.84495587885205
4 0.000001206954247
5 0.000000556258596
6 0.005936335114698
7 -0.000006037220912
8 -0.000002386853229
9 -0.16294557140418
10 -0.007659574769200
11 -0.007661605794574
12 0.015321180563774
13 -0.000001473340717
14 -0.000000028122254
15 -0.000000498617468
16 0.10384789417020
17 0.86105323682110
18 -0.079648414568620
19 -0.15507362358546
20 -0.040445209038749
21 0.10384909312358
22 0.86104461939843
23 -0.094472679298103
24 0.14651362016220
25 -0.040443863985984
26 0.10384904656099
27 0.86103962224203
28 0.17412019466061
29 0.008559649147660
30 -0.040444721531723
31 0.14845313594213
32 -0.062137026752956
33 -0.000000058850966
34 -0.000000064585445
35 -0.19826955353734
 Sym=     18.1
 Ene=       1.2008
 Spin= Alpha
 Occup=    0.000000
1 -0.000000272094493
2 -0.000001231636716
3 0.000002219204388
4 -0.031219400109328
5 -0.005948479440873
6 -0.000001441573411
7 -0.048696331174216
8 -0.009278893878853
9 0.000001390266847
10 0.10538501277297
11 -0.10538479498672
12 -0.000000217786248
13 -0.004985444135329
14 0.60130259148601
15 0.11457134795115
16 0.044350633560241
17 -0.015521796646610
18 0.065966341295956
19 -0.052622115418398
20 0.24457525687607
21 0.027031977732182
22 -0.009460876618535
23 0.076248532495221
24 0.061254602374223
25 0.14907306677397
26 -0.071383315720056
27 0.024981992159628
28 -0.027513119884891
29 0.013222880498872
30 -0.39364909789885
31 0.000000110148807
32 -0.000000003252461
33 -0.054089785722626
34 -0.010306214869667
35 -0.000000072645143
 Sym=     19.1
 Ene=       1.2008
 Spin= Alpha
 Occup=    0.000000
1 0.000000350995034
2 0.000001533358586
3 -0.000002479522583
4 0.005948520017786
5 -0.031219096610732
6 -0.000000826026478
7 0.009278343125030
8 -0.048696779015689
9 0.000000516437339
10 -0.004315641778938
11 0.004312429756924
12 0.000003212022014
13 -0.12168625522567
14 -0.11457252919266
15 0.60130298147970
16 0.056820462142176
17 -0.019885001461909
18 -0.067190945849321
19 0.010500588561659
20 0.31334009784107
21 -0.066818681554979
22 0.023384930947446
23 0.046684700276892
24 0.000220693565111
25 -0.36847951106160
26 0.009998480745577
27 -0.003498870117738
28 -0.001348813752923
29 0.10398044415562
30 0.055138682800659
31 0.000000828254146
32 -0.000001045625286
33 0.010306291249507
34 -0.054089908479728
35 0.000000572434053
 Sym=     20.1
 Ene=       1.5266
 Spin= Alpha
 Occup=    0.000000
1 -0.000000311934647
2 -0.000001520451794
3 0.000001903353662
4 -0.10463888443123
5 -0.028401863289679
6 0.000000387368493
7 -0.082024743071631
8 -0.022263123205835
9 -0.000000257646031
10 0.11745632234945
11 -0.11745554783619
12 -0.000000774513251
13 -0.016035152592900
14 -0.037896913244409
15 -0.010286427075124
16 0.18525883646837
17 -0.073988524646377
18 0.11697541306463
19 -0.008811152389273
20 -0.059181976682059
21 0.083249472014773
22 -0.033247847519780
23 0.12827864422841
24 0.058330167345204
25 -0.026594556311843
26 -0.26850963007033
27 0.10723679124845
28 0.064480951803664
29 0.034550313037879
30 0.085776333204324
31 0.000000000389490
32 -0.000000062170670
33 -0.91956435729108
34 -0.24959150736586
35 -0.000000161137552
 Sym=     21.1
 Ene=       1.5266
 Spin= Alpha
 Occup=    0.000000
1 0.000000440108787
2 0.000001969745966
3 -0.000003288187184
4 -0.028401099658921
5 0.10463901016027
6 0.000000044419536
7 -0.022263221385518
8 0.082022684441943
9 0.000000293524627
10 0.013886656212666
11 -0.013887672565949
12 0.000001016353283
13 0.13562575691622
14 -0.010285674417449
15 0.037896425738118
16 -0.20308648613759
17 0.081108867199674
18 0.064855426501970
19 -0.089514246483945
20 0.064877024075746
21 0.26198116530798
22 -0.10462888523481
23 -0.002283188317946
24 -0.078209249598028
25 -0.083691420452703
26 -0.058893637882679
27 0.023521094483872
28 0.021496679781087
29 -0.14200950895735
30 0.018813734387337
31 0.000000399831291
32 -0.000000419205431
33 -0.24959161757991
34 0.91956497355802
35 0.000000404190331
 Sym=     22.1
 Ene=       1.6118
 Spin= Alpha
 Occup=    0.000000
1 -0.000000000853990
2 -0.000000003218896
3 0.000000005280292
4 -0.000000195810269
5 0.000001489979963
6 0.000000001653959
7 -0.000002001018207
8 -0.000008240062306
9 -0.000000000692374
10 0.000001284118073
11 -0.000001281877435
12 -0.000000002240637
13 -0.000002810388534
14 -0.000000284870484
15 -0.000000470277112
16 0.000007749187527
17 -0.000001316783584
18 0.52887725387705
19 -0.27163917621301
20 -0.000002155123091
21 -0.000004408134664
22 -0.000000010965599
23 -0.49968424234732
24 -0.32220012201719
25 -0.000000043682881
26 -0.000003349617078
27 0.000001332402738
28 -0.029190976018150
29 0.59384423610428
30 0.000002195830960
31 0.000000000843545
32 -0.000000001238652
33 0.000001483126897
34 0.000004278929689
35 -0.000000002009711
 Sym=     23.1
 Ene=       1.6391
 Spin= Alpha
 Occup=    0.000000
1 0.37297169054476
2 1.51132326604840
3 -2.63776464050180
4 -0.000001565166740
5 -0.000000488089871
6 -0.43322979361319
7 0.000003774311148
8 -0.000000738134044
9 0.23652394887399
10 -0.18334213776483
11 -0.18333931882993
12 0.36668145659476
13 -0.000000935815164
14 0.000001301239183
15 -0.000001749879867
16 0.62193872631240
17 -0.082004771982768
18 -0.002032564677340
19 -0.003952330488084
20 0.27645849842500
21 0.62193494316336
22 -0.082004682306530
23 -0.002409306476481
24 0.003733950338958
25 0.27646041444118
26 0.62194213621010
27 -0.082007668193968
28 0.004437367158520
29 0.000219065502089
30 0.27645936340628
31 -0.14540647425905
32 0.28748739923761
33 -0.000001605496934
34 -0.000000178064080
35 0.75690055850894
 Sym=     24.1
 Ene=       1.7366
 Spin= Alpha
 Occup=    0.000000
1 0.000000975564012
2 0.000003823529495
3 -0.000003728223243
4 -0.065608347503320
5 0.000493060927290
6 0.000004646637858
7 1.16504909924878
8 -0.008749491374727
9 -0.000007412728019
10 -0.39840781235366
11 0.39839408866146
12 0.000013723692195