 Entering Gaussian System, Link 0=g09
 Input=run.inp
 Output=run.out
 Initial command:
 /soft/gaussian/09-e.01/g09/l1.exe "/blues/gpfs/home/elliott/Packages/PACC/moldriver/rcdriver/tmprundir/SPC/CH4/VNWKTOKETHGBQD/0/1/UHFFFAOYSA-N/ezvN4wR/RUN/HESS/A00/Gau-140668.inp" -scrdir="/blues/gpfs/home/elliott/Packages/PACC/moldriver/rcdriver/tmprundir/SPC/CH4/VNWKTOKETHGBQD/0/1/UHFFFAOYSA-N/ezvN4wR/RUN/HESS/A00/"
 Entering Link 1 = /soft/gaussian/09-e.01/g09/l1.exe PID=    140669.
  
 Copyright (c) 1988,1990,1992,1993,1995,1998,2003,2009,2015,
            Gaussian, Inc.  All Rights Reserved.
  
 This is part of the Gaussian(R) 09 program.  It is based on
 the Gaussian(R) 03 system (copyright 2003, Gaussian, Inc.),
 the Gaussian(R) 98 system (copyright 1998, Gaussian, Inc.),
 the Gaussian(R) 94 system (copyright 1995, Gaussian, Inc.),
 the Gaussian 92(TM) system (copyright 1992, Gaussian, Inc.),
 the Gaussian 90(TM) system (copyright 1990, Gaussian, Inc.),
 the Gaussian 88(TM) system (copyright 1988, Gaussian, Inc.),
 the Gaussian 86(TM) system (copyright 1986, Carnegie Mellon
 University), and the Gaussian 82(TM) system (copyright 1983,
 Carnegie Mellon University). Gaussian is a federally registered
 trademark of Gaussian, Inc.
  
 This software contains proprietary and confidential information,
 including trade secrets, belonging to Gaussian, Inc.
  
 This software is provided under written license and may be
 used, copied, transmitted, or stored only in accord with that
 written license.
  
 The following legend is applicable only to US Government
 contracts under FAR:
  
                    RESTRICTED RIGHTS LEGEND
  
 Use, reproduction and disclosure by the US Government is
 subject to restrictions as set forth in subparagraphs (a)
 and (c) of the Commercial Computer Software - Restricted
 Rights clause in FAR 52.227-19.
  
 Gaussian, Inc.
 340 Quinnipiac St., Bldg. 40, Wallingford CT 06492
  
  
 ---------------------------------------------------------------
 Warning -- This program may not be used in any manner that
 competes with the business of Gaussian, Inc. or will provide
 assistance to any competitor of Gaussian, Inc.  The licensee
 of this program is prohibited from giving any competitor of
 Gaussian, Inc. access to this program.  By using this program,
 the user acknowledges that Gaussian, Inc. is engaged in the
 business of creating and licensing software in the field of
 computational chemistry and represents and warrants to the
 licensee that it is not a competitor of Gaussian, Inc. and that
 it will not use this program in any manner prohibited above.
 ---------------------------------------------------------------
  

 Cite this work as:
 Gaussian 09, Revision E.01,
 M. J. Frisch, G. W. Trucks, H. B. Schlegel, G. E. Scuseria, 
 M. A. Robb, J. R. Cheeseman, G. Scalmani, V. Barone, B. Mennucci, 
 G. A. Petersson, H. Nakatsuji, M. Caricato, X. Li, H. P. Hratchian, 
 A. F. Izmaylov, J. Bloino, G. Zheng, J. L. Sonnenberg, M. Hada, 
 M. Ehara, K. Toyota, R. Fukuda, J. Hasegawa, M. Ishida, T. Nakajima, 
 Y. Honda, O. Kitao, H. Nakai, T. Vreven, J. A. Montgomery, Jr., 
 J. E. Peralta, F. Ogliaro, M. Bearpark, J. J. Heyd, E. Brothers, 
 K. N. Kudin, V. N. Staroverov, T. Keith, R. Kobayashi, J. Normand, 
 K. Raghavachari, A. Rendell, J. C. Burant, S. S. Iyengar, J. Tomasi, 
 M. Cossi, N. Rega, J. M. Millam, M. Klene, J. E. Knox, J. B. Cross, 
 V. Bakken, C. Adamo, J. Jaramillo, R. Gomperts, R. E. Stratmann, 
 O. Yazyev, A. J. Austin, R. Cammi, C. Pomelli, J. W. Ochterski, 
 R. L. Martin, K. Morokuma, V. G. Zakrzewski, G. A. Voth, 
 P. Salvador, J. J. Dannenberg, S. Dapprich, A. D. Daniels, 
 O. Farkas, J. B. Foresman, J. V. Ortiz, J. Cioslowski, 
 and D. J. Fox, Gaussian, Inc., Wallingford CT, 2013.
 
 ******************************************
 Gaussian 09:  ES64L-G09RevE.01 30-Nov-2015
                 5-Sep-2019 
 ******************************************
 %mem=20GB
 %NProcShared=10
 Will use up to   10 processors via shared memory.
 --------------------------------------------------------------------
 #P b3lyp/cc-pvdz # SCF=(xqc) # Freq=() # IOp(7/33=1) # int=ultrafine
 --------------------------------------------------------------------
 1/10=4,30=1,38=1/1,3;
 2/12=2,17=6,18=5,40=1/2;
 3/5=16,11=2,16=1,25=1,30=1,71=2,74=-5,75=-5,140=1/1,2,3;
 4//1;
 5/5=2,8=3,13=1,38=5,98=1/2,8;
 8/6=4,10=90,11=11/1;
 11/6=1,8=1,9=11,15=111,16=1/1,2,10;
 10/6=1/2;
 6/7=2,8=2,9=2,10=2,18=1,28=1/1;
 7/8=1,10=1,25=1,33=1/1,2,3,16;
 1/10=4,30=1/3;
 99//99;
 Leave Link    1 at Thu Sep  5 22:26:37 2019, MaxMem=  2684354560 cpu:         0.8
 (Enter /soft/gaussian/09-e.01/g09/l101.exe)
 --------
 comment:
 --------
 Symbolic Z-matrix:
 Charge =  0 Multiplicity = 1
 C                     0.        0.        0. 
 H                     0.63517   0.63517   0.63517 
 H                    -0.63517  -0.63517   0.63517 
 H                    -0.63517   0.63517  -0.63517 
 H                     0.63517  -0.63517  -0.63517 
 
 NAtoms=      5 NQM=        5 NQMF=       0 NMMI=      0 NMMIF=      0
                NMic=       0 NMicF=      0.
                    Isotopes and Nuclear Properties:
 (Nuclear quadrupole moments (NQMom) in fm**2, nuclear magnetic moments (NMagM)
  in nuclear magnetons)

  Atom         1           2           3           4           5
 IAtWgt=          12           1           1           1           1
 AtmWgt=  12.0000000   1.0078250   1.0078250   1.0078250   1.0078250
 NucSpn=           0           1           1           1           1
 AtZEff=   0.0000000   0.0000000   0.0000000   0.0000000   0.0000000
 NQMom=    0.0000000   0.0000000   0.0000000   0.0000000   0.0000000
 NMagM=    0.0000000   2.7928460   2.7928460   2.7928460   2.7928460
 AtZNuc=   6.0000000   1.0000000   1.0000000   1.0000000   1.0000000
 Leave Link  101 at Thu Sep  5 22:26:37 2019, MaxMem=  2684354560 cpu:         0.6
 (Enter /soft/gaussian/09-e.01/g09/l103.exe)

 GradGradGradGradGradGradGradGradGradGradGradGradGradGradGradGradGradGrad
 Berny optimization.
 Initialization pass.
 Trust Radius=3.00D-01 FncErr=1.00D-07 GrdErr=1.00D-07
 Number of steps in this run=      2 maximum allowed number of steps=      2.
 GradGradGradGradGradGradGradGradGradGradGradGradGradGradGradGradGradGrad

 Leave Link  103 at Thu Sep  5 22:26:37 2019, MaxMem=  2684354560 cpu:         0.2
 (Enter /soft/gaussian/09-e.01/g09/l202.exe)
                          Input orientation:                          
 ---------------------------------------------------------------------
 Center     Atomic      Atomic             Coordinates (Angstroms)
 Number     Number       Type             X           Y           Z
 ---------------------------------------------------------------------
      1          6           0        0.000000    0.000000    0.000000
      2          1           0        0.635167    0.635167    0.635167
      3          1           0       -0.635167   -0.635167    0.635167
      4          1           0       -0.635167    0.635167   -0.635167
      5          1           0        0.635167   -0.635167   -0.635167
 ---------------------------------------------------------------------
                    Distance matrix (angstroms):
                    1          2          3          4          5
     1  C    0.000000
     2  H    1.100142   0.000000
     3  H    1.100142   1.796524   0.000000
     4  H    1.100142   1.796524   1.796524   0.000000
     5  H    1.100142   1.796524   1.796524   1.796524   0.000000
 Stoichiometry    CH4
 Framework group  TD[O(C),4C3(H)]
 Deg. of freedom     1
 Full point group                 TD      NOp  24
 Largest Abelian subgroup         D2      NOp   4
 Largest concise Abelian subgroup D2      NOp   4
                         Standard orientation:                         
 ---------------------------------------------------------------------
 Center     Atomic      Atomic             Coordinates (Angstroms)
 Number     Number       Type             X           Y           Z
 ---------------------------------------------------------------------
      1          6           0        0.000000    0.000000    0.000000
      2          1           0        0.635167    0.635167    0.635167
      3          1           0       -0.635167   -0.635167    0.635167
      4          1           0       -0.635167    0.635167   -0.635167
      5          1           0        0.635167   -0.635167   -0.635167
 ---------------------------------------------------------------------
 Rotational constants (GHZ):    155.3696593    155.3696593    155.3696593
 Leave Link  202 at Thu Sep  5 22:26:37 2019, MaxMem=  2684354560 cpu:         0.2
 (Enter /soft/gaussian/09-e.01/g09/l301.exe)
 Standard basis: CC-pVDZ (5D, 7F)
 Ernie: Thresh=  0.10000D-02 Tol=  0.10000D-05 Strict=F.
 Ernie:  2 primitive shells out of 42 were deleted.
 There are    11 symmetry adapted cartesian basis functions of A   symmetry.
 There are     8 symmetry adapted cartesian basis functions of B1  symmetry.
 There are     8 symmetry adapted cartesian basis functions of B2  symmetry.
 There are     8 symmetry adapted cartesian basis functions of B3  symmetry.
 There are    10 symmetry adapted basis functions of A   symmetry.
 There are     8 symmetry adapted basis functions of B1  symmetry.
 There are     8 symmetry adapted basis functions of B2  symmetry.
 There are     8 symmetry adapted basis functions of B3  symmetry.
    34 basis functions,    61 primitive gaussians,    35 cartesian basis functions
     5 alpha electrons        5 beta electrons
       nuclear repulsion energy        13.3115367609 Hartrees.
 IExCor=  402 DFT=T Ex+Corr=B3LYP ExCW=0 ScaHFX=  0.200000
 ScaDFX=  0.800000  0.720000  1.000000  0.810000 ScalE2=  1.000000  1.000000
 IRadAn=      5 IRanWt=     -1 IRanGd=            0 ICorTp=0 IEmpDi=  4
 NAtoms=    5 NActive=    5 NUniq=    2 SFac= 4.00D+00 NAtFMM=   60 NAOKFM=F Big=F
 Integral buffers will be    131072 words long.
 Raffenetti 2 integral format.
 Two-electron integral symmetry is turned on.
 Leave Link  301 at Thu Sep  5 22:26:38 2019, MaxMem=  2684354560 cpu:         0.8
 (Enter /soft/gaussian/09-e.01/g09/l302.exe)
 NPDir=0 NMtPBC=     1 NCelOv=     1 NCel=       1 NClECP=     1 NCelD=      1
         NCelK=      1 NCelE2=     1 NClLst=     1 CellRange=     0.0.
 One-electron integrals computed using PRISM.
 One-electron integral symmetry used in STVInt
 NBasis=    34 RedAO= T EigKep=  3.18D-02  NBF=    10     8     8     8
 NBsUse=    34 1.00D-06 EigRej= -1.00D+00 NBFU=    10     8     8     8
 Precomputing XC quadrature grid using
 IXCGrd= 4 IRadAn=           5 IRanWt=          -1 IRanGd=           0 AccXCQ= 0.00D+00.
 Generated NRdTot=       0 NPtTot=           0 NUsed=           0 NTot=          32
 NSgBfM=    35    35    35    35    35 MxSgAt=     5 MxSgA2=     5.
 Leave Link  302 at Thu Sep  5 22:26:38 2019, MaxMem=  2684354560 cpu:         1.7
 (Enter /soft/gaussian/09-e.01/g09/l303.exe)
 DipDrv:  MaxL=1.
 Leave Link  303 at Thu Sep  5 22:26:38 2019, MaxMem=  2684354560 cpu:         0.3
 (Enter /soft/gaussian/09-e.01/g09/l401.exe)
 ExpMin= 1.22D-01 ExpMax= 6.67D+03 ExpMxC= 2.28D+02 IAcc=3 IRadAn=         5 AccDes= 0.00D+00
 Harris functional with IExCor=  402 and IRadAn=       5 diagonalized for initial guess.
 HarFok:  IExCor=  402 AccDes= 0.00D+00 IRadAn=         5 IDoV= 1 UseB2=F ITyADJ=14
 ICtDFT=  3500011 ScaDFX=  1.000000  1.000000  1.000000  1.000000
 FoFCou: FMM=F IPFlag=           0 FMFlag=      100000 FMFlg1=           0
         NFxFlg=           0 DoJE=T BraDBF=F KetDBF=T FulRan=T
         wScrn=  0.000000 ICntrl=     500 IOpCl=  0 I1Cent=   200000004 NGrid=           0
         NMat0=    1 NMatS0=      1 NMatT0=    0 NMatD0=    1 NMtDS0=    0 NMtDT0=    0
 Petite list used in FoFCou.
 Harris En= -40.5511739696634    
 JPrj=0 DoOrth=F DoCkMO=F.
 Initial guess orbital symmetries:
       Occupied  (A1) (A1) (T2) (T2) (T2)
       Virtual   (A1) (T2) (T2) (T2) (T2) (T2) (T2) (T2) (T2) (T2)
                 (A1) (E) (E) (A1) (T1) (T1) (T1) (T2) (T2) (T2)
                 (T2) (T2) (T2) (E) (E) (A1) (T2) (T2) (T2)
 The electronic state of the initial guess is 1-A1.
 Leave Link  401 at Thu Sep  5 22:26:38 2019, MaxMem=  2684354560 cpu:         1.8
 (Enter /soft/gaussian/09-e.01/g09/l502.exe)
 Closed shell SCF:
 Using DIIS extrapolation, IDIIS=  1040.
 Integral symmetry usage will be decided dynamically.
 Keep R1 ints in memory in symmetry-blocked form, NReq=1052783.
 IVT=       10767 IEndB=       10767 NGot=  2684354560 MDV=  2684297208
 LenX=  2684297208 LenY=  2684295542
 Requested convergence on RMS density matrix=1.00D-08 within  64 cycles.
 Requested convergence on MAX density matrix=1.00D-06.
 Requested convergence on             energy=1.00D-06.
 No special actions if energy rises.
 FoFCou: FMM=F IPFlag=           0 FMFlag=           0 FMFlg1=           0
         NFxFlg=           0 DoJE=F BraDBF=F KetDBF=F FulRan=T
         wScrn=  0.000000 ICntrl=     600 IOpCl=  0 I1Cent=           0 NGrid=           0
         NMat0=    1 NMatS0=    595 NMatT0=    0 NMatD0=    1 NMtDS0=    0 NMtDT0=    0
 Petite list used in FoFCou.
 Integral accuracy reduced to 1.0D-05 until final iterations.

 Cycle   1  Pass 0  IDiag  1:
 E= -40.4317265562123    
 DIIS: error= 6.45D-02 at cycle   1 NSaved=   1.
 NSaved= 1 IEnMin= 1 EnMin= -40.4317265562123     IErMin= 1 ErrMin= 6.45D-02
 ErrMax= 6.45D-02  0.00D+00 EMaxC= 1.00D-01 BMatC= 7.43D-02 BMatP= 7.43D-02
 IDIUse=3 WtCom= 3.55D-01 WtEn= 6.45D-01
 Coeff-Com:  0.100D+01
 Coeff-En:   0.100D+01
 Coeff:      0.100D+01
 Gap=     0.379 Goal=   None    Shift=    0.000
 GapD=    0.379 DampG=1.000 DampE=0.500 DampFc=0.5000 IDamp=-1.
 Damping current iteration by 5.00D-01
 RMSDP=1.43D-02 MaxDP=1.43D-01              OVMax= 1.94D-01

 Cycle   2  Pass 0  IDiag  1:
 E= -40.4701572367198     Delta-E=       -0.038430680507 Rises=F Damp=T
 DIIS: error= 7.91D-03 at cycle   2 NSaved=   2.
 NSaved= 2 IEnMin= 2 EnMin= -40.4701572367198     IErMin= 2 ErrMin= 7.91D-03
 ErrMax= 7.91D-03  0.00D+00 EMaxC= 1.00D-01 BMatC= 1.24D-03 BMatP= 7.43D-02
 IDIUse=3 WtCom= 9.21D-01 WtEn= 7.91D-02
 Coeff-Com:  0.807D-01 0.919D+00
 Coeff-En:   0.129D+00 0.871D+00
 Coeff:      0.845D-01 0.916D+00
 Gap=     0.453 Goal=   None    Shift=    0.000
 RMSDP=1.37D-03 MaxDP=1.13D-02 DE=-3.84D-02 OVMax= 1.01D-01

 Cycle   3  Pass 0  IDiag  1:
 E= -40.5163450707573     Delta-E=       -0.046187834038 Rises=F Damp=F
 DIIS: error= 5.81D-04 at cycle   3 NSaved=   3.
 NSaved= 3 IEnMin= 3 EnMin= -40.5163450707573     IErMin= 3 ErrMin= 5.81D-04
 ErrMax= 5.81D-04  0.00D+00 EMaxC= 1.00D-01 BMatC= 9.47D-06 BMatP= 1.24D-03
 IDIUse=3 WtCom= 9.94D-01 WtEn= 5.81D-03
 Coeff-Com:  0.691D-02-0.457D-01 0.104D+01
 Coeff-En:   0.000D+00 0.000D+00 0.100D+01
 Coeff:      0.687D-02-0.454D-01 0.104D+01
 Gap=     0.461 Goal=   None    Shift=    0.000
 RMSDP=7.14D-05 MaxDP=7.38D-04 DE=-4.62D-02 OVMax= 7.44D-04

 Cycle   4  Pass 0  IDiag  1:
 E= -40.5163534466605     Delta-E=       -0.000008375903 Rises=F Damp=F
 DIIS: error= 4.58D-05 at cycle   4 NSaved=   4.
 NSaved= 4 IEnMin= 4 EnMin= -40.5163534466605     IErMin= 4 ErrMin= 4.58D-05
 ErrMax= 4.58D-05  0.00D+00 EMaxC= 1.00D-01 BMatC= 3.67D-08 BMatP= 9.47D-06
 IDIUse=1 WtCom= 1.00D+00 WtEn= 0.00D+00
 Coeff-Com:  0.784D-03 0.569D-05 0.122D-01 0.987D+00
 Coeff:      0.784D-03 0.569D-05 0.122D-01 0.987D+00
 Gap=     0.461 Goal=   None    Shift=    0.000
 RMSDP=5.22D-06 MaxDP=3.87D-05 DE=-8.38D-06 OVMax= 6.75D-05

 Initial convergence to 1.0D-05 achieved.  Increase integral accuracy.
 Cycle   5  Pass 1  IDiag  1:
 E= -40.5163487803422     Delta-E=        0.000004666318 Rises=F Damp=F
 DIIS: error= 1.37D-06 at cycle   1 NSaved=   1.
 NSaved= 1 IEnMin= 1 EnMin= -40.5163487803422     IErMin= 1 ErrMin= 1.37D-06
 ErrMax= 1.37D-06  0.00D+00 EMaxC= 1.00D-01 BMatC= 6.79D-11 BMatP= 6.79D-11
 IDIUse=1 WtCom= 1.00D+00 WtEn= 0.00D+00
 Coeff-Com:  0.100D+01
 Coeff:      0.100D+01
 Gap=     0.461 Goal=   None    Shift=    0.000
 RMSDP=5.22D-06 MaxDP=3.87D-05 DE= 4.67D-06 OVMax= 6.27D-06

 Cycle   6  Pass 1  IDiag  1:
 E= -40.5163487804562     Delta-E=       -0.000000000114 Rises=F Damp=F
 DIIS: error= 1.15D-06 at cycle   2 NSaved=   2.
 NSaved= 2 IEnMin= 2 EnMin= -40.5163487804562     IErMin= 2 ErrMin= 1.15D-06
 ErrMax= 1.15D-06  0.00D+00 EMaxC= 1.00D-01 BMatC= 2.61D-11 BMatP= 6.79D-11
 IDIUse=1 WtCom= 1.00D+00 WtEn= 0.00D+00
 Coeff-Com:  0.297D+00 0.703D+00
 Coeff:      0.297D+00 0.703D+00
 Gap=     0.461 Goal=   None    Shift=    0.000
 RMSDP=1.51D-07 MaxDP=1.85D-06 DE=-1.14D-10 OVMax= 2.23D-06

 Cycle   7  Pass 1  IDiag  1:
 E= -40.5163487804754     Delta-E=       -0.000000000019 Rises=F Damp=F
 DIIS: error= 5.95D-07 at cycle   3 NSaved=   3.
 NSaved= 3 IEnMin= 3 EnMin= -40.5163487804754     IErMin= 3 ErrMin= 5.95D-07
 ErrMax= 5.95D-07  0.00D+00 EMaxC= 1.00D-01 BMatC= 6.65D-12 BMatP= 2.61D-11
 IDIUse=1 WtCom= 1.00D+00 WtEn= 0.00D+00
 Coeff-Com: -0.334D-01 0.339D+00 0.694D+00
 Coeff:     -0.334D-01 0.339D+00 0.694D+00
 Gap=     0.461 Goal=   None    Shift=    0.000
 RMSDP=7.04D-08 MaxDP=6.57D-07 DE=-1.92D-11 OVMax= 8.81D-07

 Cycle   8  Pass 1  IDiag  1:
 E= -40.5163487804826     Delta-E=       -0.000000000007 Rises=F Damp=F
 DIIS: error= 3.06D-09 at cycle   4 NSaved=   4.
 NSaved= 4 IEnMin= 4 EnMin= -40.5163487804826     IErMin= 4 ErrMin= 3.06D-09
 ErrMax= 3.06D-09  0.00D+00 EMaxC= 1.00D-01 BMatC= 1.67D-16 BMatP= 6.65D-12
 IDIUse=1 WtCom= 1.00D+00 WtEn= 0.00D+00
 Coeff-Com:  0.574D-04-0.847D-02-0.141D-01 0.102D+01
 Coeff:      0.574D-04-0.847D-02-0.141D-01 0.102D+01
 Gap=     0.461 Goal=   None    Shift=    0.000
 RMSDP=1.05D-09 MaxDP=5.43D-09 DE=-7.23D-12 OVMax= 7.02D-09

 SCF Done:  E(RB3LYP) =  -40.5163487805     A.U. after    8 cycles
            NFock=  8  Conv=0.10D-08     -V/T= 2.0114
 KE= 4.006078189200D+01 PE=-1.196436761426D+02 EE= 2.575500870918D+01
 Leave Link  502 at Thu Sep  5 22:26:38 2019, MaxMem=  2684354560 cpu:         2.3
 (Enter /soft/gaussian/09-e.01/g09/l508.exe)
 QCSCF skips out because SCF is already converged.
 Leave Link  508 at Thu Sep  5 22:26:38 2019, MaxMem=  2684354560 cpu:         0.0
 (Enter /soft/gaussian/09-e.01/g09/l801.exe)
 DoSCS=F DFT=T ScalE2(SS,OS)=  1.000000  1.000000
 Range of M.O.s used for correlation:     1    34
 NBasis=    34 NAE=     5 NBE=     5 NFC=     0 NFV=     0
 NROrb=     34 NOA=     5 NOB=     5 NVA=    29 NVB=    29
 Leave Link  801 at Thu Sep  5 22:26:38 2019, MaxMem=  2684354560 cpu:         0.3
 (Enter /soft/gaussian/09-e.01/g09/l1101.exe)
 Using compressed storage, NAtomX=     5.
 Will process      6 centers per pass.
 Leave Link 1101 at Thu Sep  5 22:26:38 2019, MaxMem=  2684354560 cpu:         1.4
 (Enter /soft/gaussian/09-e.01/g09/l1102.exe)
 Symmetrizing basis deriv contribution to polar:
 IMax=3 JMax=2 DiffMx= 0.00D+00
 Leave Link 1102 at Thu Sep  5 22:26:39 2019, MaxMem=  2684354560 cpu:         0.3
 (Enter /soft/gaussian/09-e.01/g09/l1110.exe)
 Forming Gx(P) for the SCF density, NAtomX=     5.
 Integral derivatives from FoFJK, PRISM(SPDF).
 Do as many integral derivatives as possible in FoFJK.
 G2DrvN: MDV=    2684354416.
 G2DrvN: will do     6 centers at a time, making    1 passes.
 Calling FoFCou, ICntrl=  3107 FMM=F I1Cent=   0 AccDes= 0.00D+00.
 FoFJK:  IHMeth= 1 ICntrl=    3107 DoSepK=F KAlg= 0 I1Cent=   0 FoldK=F
 IRaf=         0 NMat=   1 IRICut=       1 DoRegI=T DoRafI=F ISym2E= 1.
 FoFCou: FMM=F IPFlag=           0 FMFlag=      100000 FMFlg1=           0
         NFxFlg=           0 DoJE=F BraDBF=F KetDBF=F FulRan=T
         wScrn=  0.000000 ICntrl=    3107 IOpCl=  0 I1Cent=           0 NGrid=           0
         NMat0=    1 NMatS0=      1 NMatT0=    0 NMatD0=    1 NMtDS0=    0 NMtDT0=    0
 Petite list used in FoFCou.
 End of G2Drv F.D. properties file   721 does not exist.
 End of G2Drv F.D. properties file   722 does not exist.
 End of G2Drv F.D. properties file   788 does not exist.
 Leave Link 1110 at Thu Sep  5 22:26:39 2019, MaxMem=  2684354560 cpu:         3.0
 (Enter /soft/gaussian/09-e.01/g09/l1002.exe)
 Minotr:  Closed shell wavefunction.
          IDoAtm=11111
          Direct CPHF calculation.
          Differentiating once with respect to electric field.
                with respect to dipole field.
          Differentiating once with respect to nuclear coordinates.
          Using symmetry in CPHF.
          Requested convergence is 1.0D-08 RMS, and 1.0D-07 maximum.
          Secondary convergence is 1.0D-12 RMS, and 1.0D-12 maximum.
          NewPWx=T KeepS1=F KeepF1=F KeepIn=T MapXYZ=F SortEE=F KeepMc=T.
          MDV=    2684354472 using IRadAn=       1.
 Generate precomputed XC quadrature information.
 Keep R1 ints in memory in symmetry-blocked form, NReq=1041315.
 FoFCou: FMM=F IPFlag=           0 FMFlag=           0 FMFlg1=           0
         NFxFlg=           0 DoJE=F BraDBF=F KetDBF=F FulRan=T
         wScrn=  0.000000 ICntrl=     600 IOpCl=  0 I1Cent=           0 NGrid=           0
         NMat0=    1 NMatS0=    595 NMatT0=    0 NMatD0=    1 NMtDS0=    0 NMtDT0=    0
 Petite list used in FoFCou.
          Solving linear equations simultaneously, MaxMat=       0.
          There are     9 degrees of freedom in the 1st order CPHF.  IDoFFX=4 NUNeed=     9.
      9 vectors produced by pass  0 Test12= 1.61D-15 1.11D-08 XBig12= 6.72D+00 1.34D+00.
 AX will form     9 AO Fock derivatives at one time.
      9 vectors produced by pass  1 Test12= 1.61D-15 1.11D-08 XBig12= 1.65D-01 1.69D-01.
      9 vectors produced by pass  2 Test12= 1.61D-15 1.11D-08 XBig12= 5.05D-04 8.60D-03.
      9 vectors produced by pass  3 Test12= 1.61D-15 1.11D-08 XBig12= 1.85D-06 5.63D-04.
      9 vectors produced by pass  4 Test12= 1.61D-15 1.11D-08 XBig12= 9.19D-10 1.36D-05.
      4 vectors produced by pass  5 Test12= 1.61D-15 1.11D-08 XBig12= 4.14D-13 2.97D-07.
 InvSVY:  IOpt=1 It=  1 EMax= 4.44D-16
 Solved reduced A of dimension    49 with     9 vectors.
 FullF1:  Do perturbations    1 to     9.
 Isotropic polarizability for W=    0.000000       13.41 Bohr**3.
 End of Minotr F.D. properties file   721 does not exist.
 End of Minotr F.D. properties file   722 does not exist.
 End of Minotr F.D. properties file   788 does not exist.
 Leave Link 1002 at Thu Sep  5 22:26:39 2019, MaxMem=  2684354560 cpu:         3.9
 (Enter /soft/gaussian/09-e.01/g09/l601.exe)
 Copying SCF densities to generalized density rwf, IOpCl= 0 IROHF=0.

 **********************************************************************

            Population analysis using the SCF density.

 **********************************************************************

 Orbital symmetries:
       Occupied  (A1) (A1) (T2) (T2) (T2)
       Virtual   (A1) (T2) (T2) (T2) (T2) (T2) (T2) (T2) (T2) (T2)
                 (A1) (E) (E) (A1) (T1) (T1) (T1) (T2) (T2) (T2)
                 (T2) (T2) (T2) (E) (E) (A1) (T2) (T2) (T2)
 The electronic state is 1-A1.
 Alpha  occ. eigenvalues --  -10.17473  -0.69022  -0.38842  -0.38842  -0.38842
 Alpha virt. eigenvalues --    0.07297   0.14281   0.14281   0.14281   0.41372
 Alpha virt. eigenvalues --    0.41372   0.41372   0.64985   0.64985   0.64985
 Alpha virt. eigenvalues --    0.67681   0.90081   0.90081   1.04146   1.41468
 Alpha virt. eigenvalues --    1.41468   1.41468   1.60993   1.60993   1.60993
 Alpha virt. eigenvalues --    1.92043   1.92043   1.92043   2.23276   2.23276
 Alpha virt. eigenvalues --    2.39103   2.42670   2.42670   2.42670
          Condensed to atoms (all electrons):
               1          2          3          4          5
     1  C    4.502871   0.406217   0.406217   0.406217   0.406217
     2  H    0.406217   0.631897  -0.023349  -0.023349  -0.023349
     3  H    0.406217  -0.023349   0.631897  -0.023349  -0.023349
     4  H    0.406217  -0.023349  -0.023349   0.631897  -0.023349
     5  H    0.406217  -0.023349  -0.023349  -0.023349   0.631897
 Mulliken charges:
               1
     1  C   -0.127739
     2  H    0.031935
     3  H    0.031935
     4  H    0.031935
     5  H    0.031935
 Sum of Mulliken charges =  -0.00000
 Mulliken charges with hydrogens summed into heavy atoms:
               1
     1  C   -0.000000
 APT charges:
               1
     1  C    0.001983
     2  H   -0.000496
     3  H   -0.000496
     4  H   -0.000496
     5  H   -0.000496
 Sum of APT charges =  -0.00000
 APT charges with hydrogens summed into heavy atoms:
               1
     1  C   -0.000000
 Electronic spatial extent (au):  <R**2>=             35.8651
 Charge=             -0.0000 electrons
 Dipole moment (field-independent basis, Debye):
    X=              0.0000    Y=             -0.0000    Z=              0.0000  Tot=              0.0000
 Quadrupole moment (field-independent basis, Debye-Ang):
   XX=             -8.3288   YY=             -8.3288   ZZ=             -8.3288
   XY=              0.0000   XZ=             -0.0000   YZ=              0.0000
 Traceless Quadrupole moment (field-independent basis, Debye-Ang):
   XX=              0.0000   YY=             -0.0000   ZZ=             -0.0000
   XY=              0.0000   XZ=             -0.0000   YZ=              0.0000
 Octapole moment (field-independent basis, Debye-Ang**2):
  XXX=              0.0000  YYY=             -0.0000  ZZZ=              0.0000  XYY=              0.0000
  XXY=             -0.0000  XXZ=              0.0000  XZZ=              0.0000  YZZ=             -0.0000
  YYZ=             -0.0000  XYZ=              0.5886
 Hexadecapole moment (field-independent basis, Debye-Ang**3):
 XXXX=            -16.3773 YYYY=            -16.3773 ZZZZ=            -16.3773 XXXY=              0.0000
 XXXZ=              0.0000 YYYX=              0.0000 YYYZ=              0.0000 ZZZX=             -0.0000
 ZZZY=              0.0000 XXYY=             -4.9970 XXZZ=             -4.9970 YYZZ=             -4.9970
 XXYZ=             -0.0000 YYXZ=             -0.0000 ZZXY=              0.0000
 N-N= 1.331153676090D+01 E-N=-1.196436761391D+02  KE= 4.006078189200D+01
 Symmetry A    KE= 3.440661266528D+01
 Symmetry B1   KE= 1.884723075572D+00
 Symmetry B2   KE= 1.884723075572D+00
 Symmetry B3   KE= 1.884723075572D+00
  Exact polarizability:  13.413  -0.000  13.413  -0.000  -0.000  13.413
 Approx polarizability:  16.318  -0.000  16.318  -0.000   0.000  16.318
 No NMR shielding tensors so no spin-rotation constants.
 Leave Link  601 at Thu Sep  5 22:26:39 2019, MaxMem=  2684354560 cpu:         1.7
 (Enter /soft/gaussian/09-e.01/g09/l701.exe)
 Compute integral second derivatives.
 ... and contract with generalized density number  0.
 Entering OneElI...
 Calculate overlap and kinetic energy integrals
    NBasis =  35  MinDer = 2  MaxDer = 2
 Requested accuracy = 0.1000D-12
 PrsmSu:  NPrtUS=  10 ThrOK=T IAlg=1 NPAlg=1 LenDen=           0.
 Prism:   IPart=     0 DynPar=F LinDyn=F Incr=           1.
 PRISM was handed   268426172 working-precision words and   171 shell-pairs
 PRISM was handed   268426172 working-precision words and   171 shell-pairs
 PRISM was handed   268426172 working-precision words and   171 shell-pairs
 PRISM was handed   268426172 working-precision words and   171 shell-pairs
 PRISM was handed   268426172 working-precision words and   171 shell-pairs
 PRISM was handed   268426172 working-precision words and   171 shell-pairs
 PRISM was handed   268426172 working-precision words and   171 shell-pairs
 PRISM was handed   268426172 working-precision words and   171 shell-pairs
 PRISM was handed   268426172 working-precision words and   171 shell-pairs
 PRISM was handed   268426172 working-precision words and   171 shell-pairs
 IPart=  6 NShTot=          11 NBatch=           8 AvBLen=         1.4
 IPart=  8 NShTot=          10 NBatch=           7 AvBLen=         1.4
 IPart=  9 NShTot=          10 NBatch=           7 AvBLen=         1.4
 IPart=  5 NShTot=          12 NBatch=           9 AvBLen=         1.3
 IPart=  2 NShTot=          23 NBatch=          16 AvBLen=         1.4
 IPart=  7 NShTot=          11 NBatch=           8 AvBLen=         1.4
 IPart=  4 NShTot=          19 NBatch=          12 AvBLen=         1.6
 IPart=  1 NShTot=          25 NBatch=          18 AvBLen=         1.4
 IPart=  3 NShTot=          22 NBatch=          15 AvBLen=         1.5
 IPart=  0 NShTot=          28 NBatch=          21 AvBLen=         1.3
 PrSmSu:  NxtVal=             11.
 Entering OneElI...
 Calculate potential energy integrals
    NBasis =  35  MinDer = 2  MaxDer = 2
 Requested accuracy = 0.1000D-12
 PrsmSu:  NPrtUS=  10 ThrOK=T IAlg=1 NPAlg=1 LenDen=           0.
 Prism:   IPart=     0 DynPar=F LinDyn=F Incr=           1.
 PRISM was handed   268426679 working-precision words and   168 shell-pairs
 PRISM was handed   268426679 working-precision words and   168 shell-pairs
 PRISM was handed   268426679 working-precision words and   168 shell-pairs
 PRISM was handed   268426679 working-precision words and   168 shell-pairs
 PRISM was handed   268426679 working-precision words and   168 shell-pairs
 PRISM was handed   268426679 working-precision words and   168 shell-pairs
 PRISM was handed   268426679 working-precision words and   168 shell-pairs
 PRISM was handed   268426679 working-precision words and   168 shell-pairs
 PRISM was handed   268426679 working-precision words and   168 shell-pairs
 PRISM was handed   268426679 working-precision words and   168 shell-pairs
 IPart=  6 NShTot=          50 NBatch=          10 AvBLen=         5.0
 IPart=  2 NShTot=         120 NBatch=          24 AvBLen=         5.0
 IPart=  0 NShTot=         140 NBatch=          28 AvBLen=         5.0
 IPart=  8 NShTot=          50 NBatch=          10 AvBLen=         5.0
 IPart=  4 NShTot=          85 NBatch=          17 AvBLen=         5.0
 IPart=  1 NShTot=         125 NBatch=          25 AvBLen=         5.0
 IPart=  9 NShTot=          50 NBatch=          10 AvBLen=         5.0
 IPart=  7 NShTot=          50 NBatch=          10 AvBLen=         5.0
 IPart=  3 NShTot=         115 NBatch=          23 AvBLen=         5.0
 IPart=  5 NShTot=          55 NBatch=          11 AvBLen=         5.0
 PrSmSu:  NxtVal=             11.
 Polarizability after L701:
                1             2             3 
      1  0.134131D+02
      2  0.000000D+00  0.134131D+02
      3  0.000000D+00  0.000000D+00  0.134131D+02
 Dipole Derivatives after L701:
                 1             2             3             4             5 
      1   0.198306D-02  0.000000D+00  0.000000D+00 -0.495766D-03 -0.652463D-01
      2   0.000000D+00  0.198306D-02  0.000000D+00 -0.652463D-01 -0.495766D-03
      3   0.000000D+00  0.000000D+00  0.198306D-02 -0.652463D-01 -0.652463D-01
                 6             7             8             9            10 
      1  -0.652463D-01 -0.495766D-03 -0.652463D-01  0.652463D-01 -0.495766D-03
      2  -0.652463D-01 -0.652463D-01 -0.495766D-03  0.652463D-01  0.652463D-01
      3  -0.495766D-03  0.652463D-01  0.652463D-01 -0.495766D-03 -0.652463D-01
                11            12            13            14            15 
      1   0.652463D-01 -0.652463D-01 -0.495766D-03  0.652463D-01  0.652463D-01
      2  -0.495766D-03  0.652463D-01  0.652463D-01 -0.495766D-03 -0.652463D-01
      3   0.652463D-01 -0.495766D-03  0.652463D-01 -0.652463D-01 -0.495766D-03
 Hessian after L701:
                1             2             3             4             5 
      1  0.558894D+01
      2  0.000000D+00  0.558894D+01
      3  0.000000D+00  0.000000D+00  0.558894D+01
      4 -0.139724D+01  0.488602D+00  0.488602D+00  0.134663D+01
      5  0.488602D+00 -0.139724D+01  0.488602D+00 -0.515587D+00  0.134663D+01
      6  0.488602D+00  0.488602D+00 -0.139724D+01 -0.515587D+00 -0.515587D+00
      7 -0.139724D+01  0.488602D+00 -0.488602D+00  0.207857D-01  0.269854D-01
      8  0.488602D+00 -0.139724D+01 -0.488602D+00  0.269854D-01  0.207857D-01
      9 -0.488602D+00 -0.488602D+00 -0.139724D+01 -0.245100D-01 -0.245100D-01
     10 -0.139724D+01 -0.488602D+00  0.488602D+00  0.207857D-01  0.245100D-01
     11 -0.488602D+00 -0.139724D+01 -0.488602D+00 -0.245100D-01  0.903376D-02
     12  0.488602D+00 -0.488602D+00 -0.139724D+01  0.269854D-01  0.245100D-01
     13 -0.139724D+01 -0.488602D+00 -0.488602D+00  0.903376D-02 -0.245100D-01
     14 -0.488602D+00 -0.139724D+01  0.488602D+00  0.245100D-01  0.207857D-01
     15 -0.488602D+00  0.488602D+00 -0.139724D+01  0.245100D-01  0.269854D-01
                6             7             8             9            10 
      6  0.134663D+01
      7  0.245100D-01  0.134663D+01
      8  0.245100D-01 -0.515587D+00  0.134663D+01
      9  0.903376D-02  0.515587D+00  0.515587D+00  0.134663D+01
     10  0.269854D-01  0.903376D-02 -0.245100D-01  0.245100D-01  0.134663D+01
     11 -0.245100D-01  0.245100D-01  0.207857D-01 -0.269854D-01  0.515587D+00
     12  0.207857D-01 -0.245100D-01 -0.269854D-01  0.207857D-01 -0.515587D+00
     13 -0.245100D-01  0.207857D-01  0.245100D-01 -0.269854D-01  0.207857D-01
     14  0.269854D-01 -0.245100D-01  0.903376D-02  0.245100D-01 -0.269854D-01
     15  0.207857D-01 -0.269854D-01 -0.245100D-01  0.207857D-01 -0.245100D-01
               11            12            13            14            15 
     11  0.134663D+01
     12  0.515587D+00  0.134663D+01
     13 -0.269854D-01  0.245100D-01  0.134663D+01
     14  0.207857D-01 -0.245100D-01  0.515587D+00  0.134663D+01
     15  0.245100D-01  0.903376D-02  0.515587D+00 -0.515587D+00  0.134663D+01
 Leave Link  701 at Thu Sep  5 22:26:40 2019, MaxMem=  2684354560 cpu:         1.6
 (Enter /soft/gaussian/09-e.01/g09/l702.exe)
 L702 exits ... SP integral derivatives will be done elsewhere.
 Leave Link  702 at Thu Sep  5 22:26:40 2019, MaxMem=  2684354560 cpu:         0.3
 (Enter /soft/gaussian/09-e.01/g09/l703.exe)
 Compute integral second derivatives, UseDBF=F ICtDFT=           0.
 Integral derivatives from FoFJK, PRISM(SPDF).
 ICntrl=    100127.
 Calling FoFJK, ICntrl=    100127 FMM=F ISym2X=1 I1Cent= 0 IOpClX= 0 NMat=1 NMatS=1 NMatT=0.
 FoFJK:  IHMeth= 1 ICntrl=  100127 DoSepK=F KAlg= 0 I1Cent=   0 FoldK=F
 IRaf=         0 NMat=   1 IRICut=       1 DoRegI=T DoRafI=F ISym2E= 1.
 FoFCou: FMM=F IPFlag=           0 FMFlag=      100000 FMFlg1=         800
         NFxFlg=           0 DoJE=F BraDBF=F KetDBF=F FulRan=T
         wScrn=  0.000000 ICntrl=  100127 IOpCl=  0 I1Cent=           0 NGrid=           0
         NMat0=    1 NMatS0=      1 NMatT0=    0 NMatD0=    1 NMtDS0=    0 NMtDT0=    0
 Petite list used in FoFCou.
 FoFCou:  KetSym=F NOpSet= 24 NOpAb=4 NOp= 24.
 FoFCou:  CnvScl= 1.00D+00 Thresh= 1.00D-10 IAcrcy=      10.
 PrismS was handed  2684328427 working-precision words and   171 shell-pairs
 FoFCou: LinMIO=F DoNuc=F BraDBF=F KetDBF=F HaveP=T PDBF=F HaveZ=T HaveW=F
         NIJTC =       6 NIJTAt=       0 NIJTCD=       0 NIJTT =       6
         IJTBeg=       1 IJTEnd=       6 KLTBeg=       1 KLTEnd=       6
         IPTBeg=       1 IPTEnd=       6 IPTBCv=       1 IPTECv=       6
         IZTBeg=       1 IZTEnd=       6 IZTBCv=       1 IZTECv=       6
         IWTBeg=       7 IWTEnd=       6 IWTBCv=       7 IWTECv=       6
         INTBeg=       1 INTEnd=       0 IFTBCv=       1 IFTECv=       6
 NCel replicated for PrismC:     1
 CoulSu:  IncDef=  1024 NBBP=          14706 NTPThr=   100 NPartT=   10 Incr=          14 LDynOK=F.
 CoulSu:  NPrtUS=  10 ThrOK=T IAlg=1 NPAlg=1 LenDen=           0 LWGrdD=           0 DoCopy=F.
 Enter PrismC: JobTyp=22 DoJE=F Cont=F.
 PrismC:  IPart=     0 DynPar=F LinDyn=F Incr=          14 UseFst=F UseS4=T IGathr=2.
 PrismC was handed   268426056 working-precision words and   171 shell-pairs
 Enter PrismC: JobTyp=22 DoJE=F Cont=F.
 PrismC was handed   268426056 working-precision words and   171 shell-pairs
 Enter PrismC: JobTyp=22 DoJE=F Cont=F.
 PrismC was handed   268426056 working-precision words and   171 shell-pairs
 Enter PrismC: JobTyp=22 DoJE=F Cont=F.
 PrismC was handed   268426056 working-precision words and   171 shell-pairs
 Enter PrismC: JobTyp=22 DoJE=F Cont=F.
 PrismC was handed   268426056 working-precision words and   171 shell-pairs
 Enter PrismC: JobTyp=22 DoJE=F Cont=F.
 PrismC was handed   268426056 working-precision words and   171 shell-pairs
 Enter PrismC: JobTyp=22 DoJE=F Cont=F.
 Enter PrismC: JobTyp=22 DoJE=F Cont=F.
 PrismC was handed   268426056 working-precision words and   171 shell-pairs
 PrismC was handed   268426056 working-precision words and   171 shell-pairs
 Enter PrismC: JobTyp=22 DoJE=F Cont=F.
 Enter PrismC: JobTyp=22 DoJE=F Cont=F.
 PrismC was handed   268426056 working-precision words and   171 shell-pairs
 PrismC was handed   268426056 working-precision words and   171 shell-pairs
 IPart=  6 NShTot=          65 NShNF=          65 NShFF=           0 NBatch=          58 AvBLen=         1.1
 IPart=  2 NShTot=          95 NShNF=          95 NShFF=           0 NBatch=          77 AvBLen=         1.2
 IPart=  7 NShTot=          93 NShNF=          93 NShFF=           0 NBatch=          79 AvBLen=         1.2
 IPart=  1 NShTot=          84 NShNF=          84 NShFF=           0 NBatch=          70 AvBLen=         1.2
 IPart=  8 NShTot=         226 NShNF=         226 NShFF=           0 NBatch=         117 AvBLen=         1.9
 IPart=  9 NShTot=         235 NShNF=         235 NShFF=           0 NBatch=         122 AvBLen=         1.9
 IPart=  5 NShTot=         232 NShNF=         232 NShFF=           0 NBatch=         125 AvBLen=         1.9
 IPart=  4 NShTot=         240 NShNF=         240 NShFF=           0 NBatch=         128 AvBLen=         1.9
 IPart=  3 NShTot=         271 NShNF=         271 NShFF=           0 NBatch=         174 AvBLen=         1.6
 IPart=  0 NShTot=         265 NShNF=         265 NShFF=           0 NBatch=         147 AvBLen=         1.8
 CoulSu:  NxtVal=            141.
 ReadGW:  IGet=0 IStart=           1 Next=           1 LGW=           0.
 Remaining memory in FofDFT     2560.00 Mw
 CkSvGd:  ISavGI=        -1 IRadAn=       5 IRASav=       5 ISavGd=        -1.
 CalDSu:  NPrtUS=  10 ThrOK=T IAlg=1 NPAlg=2 DoDPD=T LenP=         630 LenD1P=             0.
 IPart=  0 IRanGd=          0 ScrnBf=T ScrnGd=T RCrit=4.00D+00 DoMicB=T.
 IPart=  4         3107 of         3520 points in       7 batches and       20 microbatches, Max-NSigAt=       5 Max-NSgAt2=       5
 IPart=  0         2234 of         2323 points in       3 batches and       12 microbatches, Max-NSigAt=       5 Max-NSgAt2=       5
 IPart=  2         2310 of         2434 points in       3 batches and       15 microbatches, Max-NSigAt=       5 Max-NSgAt2=       5
 IPart=  3         2082 of         2236 points in       4 batches and       22 microbatches, Max-NSigAt=       5 Max-NSgAt2=       5
 IPart=  6         2080 of         2236 points in       4 batches and       27 microbatches, Max-NSigAt=       5 Max-NSgAt2=       5
 IPart=  5         2150 of         2380 points in       4 batches and       32 microbatches, Max-NSigAt=       5 Max-NSgAt2=       5
 IPart=  8         2867 of         3004 points in       3 batches and       11 microbatches, Max-NSigAt=       5 Max-NSgAt2=       5
 IPart=  7         2800 of         2863 points in       3 batches and       11 microbatches, Max-NSigAt=       5 Max-NSgAt2=       5
 IPart=  9         2686 of         2812 points in       4 batches and       13 microbatches, Max-NSigAt=       5 Max-NSgAt2=       5
 IPart=  1         3252 of         3290 points in       3 batches and        9 microbatches, Max-NSigAt=       5 Max-NSgAt2=       5
 Polarizability after L703:
                1             2             3 
      1  0.134131D+02
      2  0.000000D+00  0.134131D+02
      3  0.000000D+00  0.000000D+00  0.134131D+02
 Dipole Derivatives after L703:
                 1             2             3             4             5 
      1   0.198306D-02  0.000000D+00  0.000000D+00 -0.495766D-03 -0.652463D-01
      2   0.000000D+00  0.198306D-02  0.000000D+00 -0.652463D-01 -0.495766D-03
      3   0.000000D+00  0.000000D+00  0.198306D-02 -0.652463D-01 -0.652463D-01
                 6             7             8             9            10 
      1  -0.652463D-01 -0.495766D-03 -0.652463D-01  0.652463D-01 -0.495766D-03
      2  -0.652463D-01 -0.652463D-01 -0.495766D-03  0.652463D-01  0.652463D-01
      3  -0.495766D-03  0.652463D-01  0.652463D-01 -0.495766D-03 -0.652463D-01
                11            12            13            14            15 
      1   0.652463D-01 -0.652463D-01 -0.495766D-03  0.652463D-01  0.652463D-01
      2  -0.495766D-03  0.652463D-01  0.652463D-01 -0.495766D-03 -0.652463D-01
      3   0.652463D-01 -0.495766D-03  0.652463D-01 -0.652463D-01 -0.495766D-03
 Hessian after L703:
                1             2             3             4             5 
      1  0.541388D+00
      2  0.000000D+00  0.541388D+00
      3  0.000000D+00  0.000000D+00  0.541388D+00
      4 -0.135347D+00 -0.921759D-01 -0.921759D-01  0.143423D+00
      5 -0.921759D-01 -0.135347D+00 -0.921759D-01  0.100504D+00  0.143423D+00
      6 -0.921759D-01 -0.921759D-01 -0.135347D+00  0.100504D+00  0.100504D+00
      7 -0.135347D+00 -0.921759D-01  0.921759D-01 -0.101547D-01 -0.832825D-02
      8 -0.921759D-01 -0.135347D+00  0.921759D-01 -0.832825D-02 -0.101547D-01
      9  0.921759D-01  0.921759D-01 -0.135347D+00 -0.111443D-01 -0.111443D-01
     10 -0.135347D+00  0.921759D-01 -0.921759D-01 -0.101547D-01  0.111443D-01
     11  0.921759D-01 -0.135347D+00  0.921759D-01 -0.111443D-01  0.122335D-01
     12 -0.921759D-01  0.921759D-01 -0.135347D+00 -0.832825D-02  0.111443D-01
     13 -0.135347D+00  0.921759D-01  0.921759D-01  0.122335D-01 -0.111443D-01
     14  0.921759D-01 -0.135347D+00 -0.921759D-01  0.111443D-01 -0.101547D-01
     15  0.921759D-01 -0.921759D-01 -0.135347D+00  0.111443D-01 -0.832825D-02
                6             7             8             9            10 
      6  0.143423D+00
      7  0.111443D-01  0.143423D+00
      8  0.111443D-01  0.100504D+00  0.143423D+00
      9  0.122335D-01 -0.100504D+00 -0.100504D+00  0.143423D+00
     10 -0.832825D-02  0.122335D-01 -0.111443D-01  0.111443D-01  0.143423D+00
     11 -0.111443D-01  0.111443D-01 -0.101547D-01  0.832825D-02 -0.100504D+00
     12 -0.101547D-01 -0.111443D-01  0.832825D-02 -0.101547D-01  0.100504D+00
     13 -0.111443D-01 -0.101547D-01  0.111443D-01  0.832825D-02 -0.101547D-01
     14 -0.832825D-02 -0.111443D-01  0.122335D-01  0.111443D-01  0.832825D-02
     15 -0.101547D-01  0.832825D-02 -0.111443D-01 -0.101547D-01 -0.111443D-01
               11            12            13            14            15 
     11  0.143423D+00
     12 -0.100504D+00  0.143423D+00
     13  0.832825D-02  0.111443D-01  0.143423D+00
     14 -0.101547D-01 -0.111443D-01 -0.100504D+00  0.143423D+00
     15  0.111443D-01  0.122335D-01 -0.100504D+00  0.100504D+00  0.143423D+00
 Leave Link  703 at Thu Sep  5 22:26:40 2019, MaxMem=  2684354560 cpu:         2.9
 (Enter /soft/gaussian/09-e.01/g09/l716.exe)
 FrcOut:
 IF    =    42 IFX   =    57 IFXYZ =    72
 IFFX  =    87 IFFFX =   207 IFLen =    15
 IFFLen=   120 IFFFLn=     0 IEDerv=   207
 LEDerv=   773 IFroze=  1169 ICStrt=  3613
 Dipole        = 1.38127357D-16-1.01242799D-15 2.08817338D-16
 DipoleDeriv   = 1.98306153D-03 1.99051562D-11 2.07490380D-11
                 1.96186931D-11 1.98306152D-03 1.92088688D-11
                 1.79679401D-11 1.19780321D-11 1.98306152D-03
                -4.95766111D-04-6.52463175D-02-6.52463175D-02
                -6.52463175D-02-4.95766098D-04-6.52463175D-02
                -6.52463175D-02-6.52463175D-02-4.95766106D-04
                -4.95766059D-04-6.52463172D-02 6.52463174D-02
                -6.52463172D-02-4.95766046D-04 6.52463174D-02
                 6.52463173D-02 6.52463173D-02-4.95766187D-04
                -4.95766059D-04 6.52463174D-02-6.52463172D-02
                 6.52463173D-02-4.95766180D-04 6.52463173D-02
                -6.52463172D-02 6.52463174D-02-4.95766053D-04
                -4.95766192D-04 6.52463173D-02 6.52463173D-02
                 6.52463174D-02-4.95766046D-04-6.52463172D-02
                 6.52463174D-02-6.52463172D-02-4.95766053D-04
 Polarizability= 1.34131429D+01-4.67949670D-11 1.34131429D+01
                -3.28024719D-11-1.66830381D-11 1.34131429D+01
 VibFq2-Diag1:  N=     15 IV=           6 MDV=  2684349885 NE2=   178956658
 Full mass-weighted force constant matrix:
 Low frequencies ---   -0.0012   -0.0009   -0.0007   42.3376   42.3376   42.3376
 Low frequencies --- 1310.2921 1310.2921 1310.2921
 OrtVCM:  Ph=1 IPass= 1 DotMx1= 0.00D+00
 OrtVCM:  IS=    1 I=    1 IndO=    1 Dot= 1.00D+00 DotN= 1.00D+00 ElMax1= 8.65D-01 ElMax1N= 8.65D-01
 OrtVCM:  Ph=2 NNew=    0 IAdd=    2 IPass= 1 DotMx2= 0.00D+00
 OrtVCM:  IS=    1 I=    2 IndO=    2 Dot= 1.00D+00 DotN= 1.00D+00 ElMax1= 8.65D-01 ElMax1N= 8.65D-01
 OrtVCM:  Ph=2 NNew=    0 IAdd=    3 IPass= 1 DotMx2= 0.00D+00
 OrtVCM:  IS=    1 I=    3 IndO=    3 Dot= 1.00D+00 DotN= 1.00D+00 ElMax1= 8.65D-01 ElMax1N= 8.65D-01
 OrtVCM:  Ph=2 NNew=    0 IAdd=    4 IPass= 1 DotMx2= 0.00D+00
 OrtVCM:  IS=    1 I=    4 IndO=    4 Dot= 1.00D+00 DotN= 1.00D+00 ElMax1= 5.00D-01 ElMax1N= 5.00D-01
 OrtVCM:  Ph=2 NNew=    0 IAdd=    5 IPass= 1 DotMx2= 1.76D-16
 OrtVCM:  IS=    1 I=    5 IndO=    5 Dot= 1.00D+00 DotN= 1.00D+00 ElMax1= 5.00D-01 ElMax1N= 5.00D-01
 OrtVCM:  Ph=2 NNew=    0 IAdd=    6 IPass= 1 DotMx2= 5.55D-17
 OrtVCM:  IS=    1 I=    6 IndO=    6 Dot= 1.00D+00 DotN= 1.00D+00 ElMax1= 3.54D-01 ElMax1N= 3.54D-01
 OrtVCM:  Ph=1 IPass= 1 DotMx1= 8.65D-01
 OrtVCM:  Ph=1 IPass= 2 DotMx1= 2.91D-16
 OrtVCM:  IS=    1 I=    1 IndO=    7 Dot= 2.51D-01 DotN= 2.51D-01 ElMax1= 2.51D-01 ElMax1N= 2.51D-01
 OrtVCM:  Ph=2 NNew=    0 IAdd=    2 IPass= 1 DotMx2= 2.40D-35
 OrtVCM:  IS=    1 I=    2 IndO=    8 Dot= 2.51D-01 DotN= 2.51D-01 ElMax1= 2.51D-01 ElMax1N= 2.51D-01
 OrtVCM:  Ph=2 NNew=    0 IAdd=    3 IPass= 1 DotMx2= 1.73D-33
 OrtVCM:  IS=    1 I=    3 IndO=    9 Dot= 2.51D-01 DotN= 2.51D-01 ElMax1= 2.51D-01 ElMax1N= 2.51D-01
 OrtVCM:  Ph=2 NNew=    0 IAdd=    4 IPass= 1 DotMx2= 4.33D-01
 OrtVCM:  Ph=2 NNew=    0 IAdd=    4 IPass= 2 DotMx2= 6.87D-17
 OrtVCM:  IS=    1 I=    4 IndO=   10 Dot= 5.00D-01 DotN= 5.00D-01 ElMax1= 5.00D-01 ElMax1N= 5.00D-01
 OrtVCM:  Ph=2 NNew=    0 IAdd=    5 IPass= 1 DotMx2= 4.33D-01
 OrtVCM:  Ph=2 NNew=    0 IAdd=    5 IPass= 2 DotMx2= 5.90D-17
 OrtVCM:  IS=    1 I=    5 IndO=   11 Dot= 4.69D-01 DotN= 4.69D-01 ElMax1= 4.69D-01 ElMax1N= 4.69D-01
 OrtVCM:  Ph=2 NNew=    0 IAdd=    6 IPass= 1 DotMx2= 4.33D-01
 OrtVCM:  Ph=2 NNew=    0 IAdd=    6 IPass= 2 DotMx2= 2.78D-17
 OrtVCM:  IS=    1 I=    6 IndO=   12 Dot= 4.50D-01 DotN= 4.50D-01 ElMax1= 4.50D-01 ElMax1N= 4.50D-01
 OrtVCM:  Ph=2 NNew=    0 IAdd=    7 IPass= 1 DotMx2= 4.33D-01
 OrtVCM:  Ph=2 NNew=    0 IAdd=    7 IPass= 2 DotMx2= 1.67D-16
 OrtVCM:  IS=    1 I=    7 IndO=   13 Dot= 2.78D-01 DotN= 2.78D-01 ElMax1= 2.78D-01 ElMax1N= 2.78D-01
 OrtVCM:  Ph=2 NNew=    0 IAdd=    8 IPass= 1 DotMx2= 4.33D-01
 OrtVCM:  Ph=2 NNew=    0 IAdd=    8 IPass= 2 DotMx2= 1.47D-16
 OrtVCM:  IS=    1 I=    8 IndO=   14 Dot= 2.67D-01 DotN= 2.67D-01 ElMax1= 2.67D-01 ElMax1N= 2.67D-01
 OrtVCM:  Ph=2 NNew=    0 IAdd=    9 IPass= 1 DotMx2= 5.16D-01
 OrtVCM:  Ph=2 NNew=    0 IAdd=    9 IPass= 2 DotMx2= 1.13D-16
 OrtVCM:  IS=    1 I=    9 IndO=    0 Dot= 2.43D-32 DotN= 2.43D-32 ElMax1= 7.42D-17 ElMax1N= 7.42D-17
 SchOr2:  IPass= 1 Test2A= 1.00D-01 IOff=     0 NDo=     9 NNew=     8
 OrtVCM:  Ph=1 IPass= 1 DotMx1= 4.33D-01
 OrtVCM:  Ph=1 IPass= 2 DotMx1= 1.67D-16
 OrtVCM:  IS=    1 I=    1 IndO=   15 Dot= 2.50D-01 DotN= 2.50D-01 ElMax1= 2.50D-01 ElMax1N= 2.50D-01
 SchOr2:  IPass= 1 Test2A= 1.00D-01 IOff=     9 NDo=     1 NNew=     1
 VibFq2-Diag2:  N=      9 IV=           6 MDV=  2684349885 NE2=   298261097
 Dipole derivative wrt mode   1:  1.25809D+00  2.24183D+00  2.31652D+00
 Vibrational polarizability contributions from mode   1       0.0248097       0.0787772       0.0841143
 Dipole derivative wrt mode   2:  1.05548D-01  2.45671D+00 -2.43481D+00
 Vibrational polarizability contributions from mode   2       0.0001746       0.0946026       0.0929240
 Dipole derivative wrt mode   3:  3.22194D+00 -9.55860D-01 -8.24785D-01
 Vibrational polarizability contributions from mode   3       0.1627169       0.0143214       0.0106630
 Dipole derivative wrt mode   4:  1.58627D-09 -7.10169D-10 -7.88086D-10
 Vibrational polarizability contributions from mode   4       0.0000000       0.0000000       0.0000000
 Dipole derivative wrt mode   5: -1.17121D-11  1.36665D-09 -1.32142D-09
 Vibrational polarizability contributions from mode   5       0.0000000       0.0000000       0.0000000
 Dipole derivative wrt mode   6: -5.43197D-09 -5.57867D-09 -5.42611D-09
 Vibrational polarizability contributions from mode   6       0.0000000       0.0000000       0.0000000
 Dipole derivative wrt mode   7:  4.57805D+00 -8.50483D-02 -6.36962D-02
 Vibrational polarizability contributions from mode   7       0.0569621       0.0000197       0.0000110
 Dipole derivative wrt mode   8: -4.75001D-03 -2.90614D+00  3.53894D+00
 Vibrational polarizability contributions from mode   8       0.0000001       0.0229541       0.0340386
 Dipole derivative wrt mode   9: -1.06150D-01 -3.53792D+00 -2.90545D+00
 Vibrational polarizability contributions from mode   9       0.0000306       0.0340190       0.0229431
 Diagonal vibrational polarizability:
        0.2446940       0.2446940       0.2446940
 NorSel:  MapVib=      1      2      3      4      5      6      7      8      9
 Harmonic frequencies (cm**-1), IR intensities (KM/Mole), Raman scattering
 activities (A**4/AMU), depolarization ratios for plane and unpolarized
 incident light, reduced masses (AMU), force constants (mDyne/A),
 and normal coordinates:
                      1                      2                      3
                     T2                     T2                     T2
 Frequencies --   1310.2921              1310.2921              1310.2921
 Red. masses --      1.1791                 1.1791                 1.1791
 Frc consts  --      1.1927                 1.1927                 1.1927
 IR Inten    --     11.9749                11.9749                11.9749
  Atom  AN      X      Y      Z        X      Y      Z        X      Y      Z
     1   6    -0.05  -0.08  -0.08    -0.00  -0.09   0.09    -0.12   0.03   0.03
     2   1    -0.17   0.00   0.01     0.01   0.42  -0.43     0.47  -0.26  -0.24
     3   1     0.14   0.31   0.48    -0.32   0.09  -0.09     0.35  -0.37   0.06
     4   1     0.13   0.48   0.31     0.34   0.11  -0.10     0.34   0.06  -0.37
     5   1     0.44   0.17   0.18     0.01   0.43  -0.42     0.23   0.17   0.19
                      4                      5                      6
                      E                      E                     A1
 Frequencies --   1531.2076              1531.2076              3025.2246
 Red. masses --      1.0078                 1.0078                 1.0078
 Frc consts  --      1.3922                 1.3922                 5.4344
 IR Inten    --      0.0000                 0.0000                 0.0000
  Atom  AN      X      Y      Z        X      Y      Z        X      Y      Z
     1   6     0.00  -0.00  -0.00    -0.00   0.00  -0.00     0.00   0.00   0.00
     2   1     0.41  -0.20  -0.21    -0.00   0.36  -0.35     0.29   0.29   0.29
     3   1    -0.41   0.20  -0.21     0.00  -0.36  -0.35    -0.29  -0.29   0.29
     4   1    -0.41  -0.20   0.21     0.00   0.36   0.35    -0.29   0.29  -0.29
     5   1     0.41   0.20   0.21    -0.00  -0.36   0.35     0.29  -0.29  -0.29
                      7                      8                      9
                     T2                     T2                     T2
 Frequencies --   3146.6885              3146.6885              3146.6885
 Red. masses --      1.1016                 1.1016                 1.1016
 Frc consts  --      6.4265                 6.4265                 6.4265
 IR Inten    --     20.9698                20.9698                20.9698
  Atom  AN      X      Y      Z        X      Y      Z        X      Y      Z
     1   6     0.09  -0.00  -0.00    -0.00  -0.06   0.07    -0.00  -0.07  -0.06
     2   1    -0.27  -0.28  -0.28    -0.04  -0.05  -0.03     0.42   0.41   0.41
     3   1    -0.27  -0.29   0.29     0.41   0.40  -0.40     0.05   0.03  -0.06
     4   1    -0.28   0.29  -0.30    -0.41   0.40  -0.40    -0.03   0.02  -0.05
     5   1    -0.28   0.30   0.30     0.04  -0.05  -0.03    -0.41   0.39   0.39

 -------------------
 - Thermochemistry -
 -------------------
 Temperature   298.150 Kelvin.  Pressure   1.00000 Atm.
 Atom     1 has atomic number  6 and mass  12.00000
 Atom     2 has atomic number  1 and mass   1.00783
 Atom     3 has atomic number  1 and mass   1.00783
 Atom     4 has atomic number  1 and mass   1.00783
 Atom     5 has atomic number  1 and mass   1.00783
 Molecular mass:    16.03130 amu.
 Principal axes and moments of inertia in atomic units:
                           1         2         3
     Eigenvalues --    11.61579  11.61579  11.61579
           X            0.70711   0.70711   0.00000
           Y           -0.70711   0.70711   0.00000
           Z            0.00000  -0.00000   1.00000
 This molecule is a spherical top.
 Rotational symmetry number 12.
 Rotational temperatures (Kelvin)      7.45656     7.45656     7.45656
 Rotational constants (GHZ):         155.36966   155.36966   155.36966
 Zero-point vibrational energy     116388.2 (Joules/Mol)
                                   27.81744 (Kcal/Mol)
 Vibrational temperatures:   1885.22  1885.22  1885.22  2203.06  2203.06
          (Kelvin)           4352.62  4527.38  4527.38  4527.38
 
 Zero-point correction=                           0.044330 (Hartree/Particle)
 Thermal correction to Energy=                    0.047203
 Thermal correction to Enthalpy=                  0.048147
 Thermal correction to Gibbs Free Energy=         0.026987
 Sum of electronic and zero-point Energies=            -40.472019
 Sum of electronic and thermal Energies=               -40.469145
 Sum of electronic and thermal Enthalpies=             -40.468201
 Sum of electronic and thermal Free Energies=          -40.489361
 
                     E (Thermal)             CV                S
                      KCal/Mol        Cal/Mol-Kelvin    Cal/Mol-Kelvin
 Total                   29.621              6.526             44.535
 Electronic               0.000              0.000              0.000
 Translational            0.889              2.981             34.261
 Rotational               0.889              2.981             10.175
 Vibrational             27.843              0.564              0.099
                       Q            Log10(Q)             Ln(Q)
 Total Bot       0.386122D-12        -12.413276        -28.582624
 Total V=0       0.948471D+08          7.977024         18.367777
 Vib (Bot)       0.409805D-20        -20.387422        -46.943775
 Vib (V=0)       0.100665D+01          0.002878          0.006626
 Electronic      0.100000D+01          0.000000          0.000000
 Translational   0.252295D+07          6.401908         14.740939
 Rotational      0.373455D+02          1.572238          3.620212
 
                                                               comment:
                                                             IR Spectrum
 
      3   3                                                            1        1                                                    
      1   0                                                            5        3                                                    
      4   2                                                            3        1                                                    
      7   5                                                            1        0                                                    
 
      X                                                                         X                                                    
      X                                                                         X                                                    
      X                                                                         X                                                    
      X                                                                         X                                                    
      X                                                                         X                                                    
      X                                                                         X                                                    
      X                                                                         X                                                    
      X                                                                         X                                                    
      X                                                                         X                                                    
      X                                                                         X                                                    
      X                                                                         X                                                    
      X                                                                                                                              
      X                                                                                                                              
      X                                                                                                                              
      X                                                                                                                              
      X                                                                                                                              
      X                                                                                                                              
      X                                                                                                                              
      X                                                                                                                              
      X                                                                                                                              
 
 Forces in standard orientation:
 -------------------------------------------------------------------
 Center     Atomic                   Forces (Hartrees/Bohr)
 Number     Number              X              Y              Z
 -------------------------------------------------------------------
      1        6          -0.000000000    0.000000000   -0.000000000
      2        1           0.000084141    0.000084141    0.000084141
      3        1          -0.000084141   -0.000084141    0.000084141
      4        1          -0.000084141    0.000084141   -0.000084141
      5        1           0.000084141   -0.000084141   -0.000084141
 -------------------------------------------------------------------
 ***** Axes restored to original set *****
 Rotating derivatives, DoTrsp=F IDiff=-2 LEDeriv=    772 LFDPrp=       0 LDFDPr=       0.
 -------------------------------------------------------------------
 Center     Atomic                   Forces (Hartrees/Bohr)
 Number     Number              X              Y              Z
 -------------------------------------------------------------------
      1        6           0.000000000   -0.000000000    0.000000000
      2        1          -0.000084141   -0.000084141   -0.000084141
      3        1           0.000084141    0.000084141   -0.000084141
      4        1           0.000084141   -0.000084141    0.000084141
      5        1          -0.000084141    0.000084141    0.000084141
 -------------------------------------------------------------------
 Cartesian Forces:  Max     0.000084141 RMS     0.000075258
 Z-matrix is all fixed cartesians, so copy forces.
 Force constants in Cartesian coordinates: 
                1             2             3             4             5 
      1  0.541388D+00
      2  0.000000D+00  0.541388D+00
      3  0.000000D+00  0.000000D+00  0.541388D+00
      4 -0.135347D+00 -0.921759D-01 -0.921759D-01  0.143423D+00
      5 -0.921759D-01 -0.135347D+00 -0.921759D-01  0.100504D+00  0.143423D+00
      6 -0.921759D-01 -0.921759D-01 -0.135347D+00  0.100504D+00  0.100504D+00
      7 -0.135347D+00 -0.921759D-01  0.921759D-01 -0.101547D-01 -0.832825D-02
      8 -0.921759D-01 -0.135347D+00  0.921759D-01 -0.832825D-02 -0.101547D-01
      9  0.921759D-01  0.921759D-01 -0.135347D+00 -0.111443D-01 -0.111443D-01
     10 -0.135347D+00  0.921759D-01 -0.921759D-01 -0.101547D-01  0.111443D-01
     11  0.921759D-01 -0.135347D+00  0.921759D-01 -0.111443D-01  0.122335D-01
     12 -0.921759D-01  0.921759D-01 -0.135347D+00 -0.832825D-02  0.111443D-01
     13 -0.135347D+00  0.921759D-01  0.921759D-01  0.122335D-01 -0.111443D-01
     14  0.921759D-01 -0.135347D+00 -0.921759D-01  0.111443D-01 -0.101547D-01
     15  0.921759D-01 -0.921759D-01 -0.135347D+00  0.111443D-01 -0.832825D-02
                6             7             8             9            10 
      6  0.143423D+00
      7  0.111443D-01  0.143423D+00
      8  0.111443D-01  0.100504D+00  0.143423D+00
      9  0.122335D-01 -0.100504D+00 -0.100504D+00  0.143423D+00
     10 -0.832825D-02  0.122335D-01 -0.111443D-01  0.111443D-01  0.143423D+00
     11 -0.111443D-01  0.111443D-01 -0.101547D-01  0.832825D-02 -0.100504D+00
     12 -0.101547D-01 -0.111443D-01  0.832825D-02 -0.101547D-01  0.100504D+00
     13 -0.111443D-01 -0.101547D-01  0.111443D-01  0.832825D-02 -0.101547D-01
     14 -0.832825D-02 -0.111443D-01  0.122335D-01  0.111443D-01  0.832825D-02
     15 -0.101547D-01  0.832825D-02 -0.111443D-01 -0.101547D-01 -0.111443D-01
               11            12            13            14            15 
     11  0.143423D+00
     12 -0.100504D+00  0.143423D+00
     13  0.832825D-02  0.111443D-01  0.143423D+00
     14 -0.101547D-01 -0.111443D-01 -0.100504D+00  0.143423D+00
     15  0.111443D-01  0.122335D-01 -0.100504D+00  0.100504D+00  0.143423D+00
 Final forces over variables, Energy=-4.05163488D+01:
  4.39536662D-15-8.41409756D-05 8.41409756D-05 8.41409756D-05
 -8.41409756D-05-3.36271402D-15-8.41409756D-05 8.41409756D-05
 -8.41409756D-05 8.41409756D-05 4.29171223D-15-8.41409756D-05
 -8.41409756D-05 8.41409756D-05 8.41409756D-05
 Leave Link  716 at Thu Sep  5 22:26:40 2019, MaxMem=  2684354560 cpu:         0.3
 (Enter /soft/gaussian/09-e.01/g09/l103.exe)

 GradGradGradGradGradGradGradGradGradGradGradGradGradGradGradGradGradGrad
 Berny optimization.
 Search for a local minimum.
 Step number   1 out of a maximum of    2
 All quantities printed in internal units (Hartrees-Bohrs-Radians)
 Second derivative matrix not updated -- analytic derivatives used.
 The second derivative matrix:
                          X1        Y1        Z1        X2        Y2
           X1           0.54139
           Y1           0.00000   0.54139
           Z1           0.00000   0.00000   0.54139
           X2          -0.13535  -0.09218  -0.09218   0.14342
           Y2          -0.09218  -0.13535  -0.09218   0.10050   0.14342
           Z2          -0.09218  -0.09218  -0.13535   0.10050   0.10050
           X3          -0.13535  -0.09218   0.09218  -0.01015  -0.00833
           Y3          -0.09218  -0.13535   0.09218  -0.00833  -0.01015
           Z3           0.09218   0.09218  -0.13535  -0.01114  -0.01114
           X4          -0.13535   0.09218  -0.09218  -0.01015   0.01114
           Y4           0.09218  -0.13535   0.09218  -0.01114   0.01223
           Z4          -0.09218   0.09218  -0.13535  -0.00833   0.01114
           X5          -0.13535   0.09218   0.09218   0.01223  -0.01114
           Y5           0.09218  -0.13535  -0.09218   0.01114  -0.01015
           Z5           0.09218  -0.09218  -0.13535   0.01114  -0.00833
                          Z2        X3        Y3        Z3        X4
           Z2           0.14342
           X3           0.01114   0.14342
           Y3           0.01114   0.10050   0.14342
           Z3           0.01223  -0.10050  -0.10050   0.14342
           X4          -0.00833   0.01223  -0.01114   0.01114   0.14342
           Y4          -0.01114   0.01114  -0.01015   0.00833  -0.10050
           Z4          -0.01015  -0.01114   0.00833  -0.01015   0.10050
           X5          -0.01114  -0.01015   0.01114   0.00833  -0.01015
           Y5          -0.00833  -0.01114   0.01223   0.01114   0.00833
           Z5          -0.01015   0.00833  -0.01114  -0.01015  -0.01114
                          Y4        Z4        X5        Y5        Z5
           Y4           0.14342
           Z4          -0.10050   0.14342
           X5           0.00833   0.01114   0.14342
           Y5          -0.01015  -0.01114  -0.10050   0.14342
           Z5           0.01114   0.01223  -0.10050   0.10050   0.14342
 ITU=  0
     Eigenvalues ---    0.08942   0.08942   0.10722   0.10722   0.10722
     Eigenvalues ---    0.34905   0.71807   0.71807   0.71807
 Angle between quadratic step and forces=   0.00 degrees.
 ClnCor:  largest displacement from symmetrization is 2.04D-12 for atom     3.
 Linear search not attempted -- first point.
 ClnCor:  largest displacement from symmetrization is 1.03D-29 for atom     1.
 B after Tr=     0.000000    0.000000    0.000000
         Rot=    1.000000    0.000000    0.000000    0.000000 Ang=   0.00 deg.
 Variable       Old X    -DE/DX   Delta X   Delta X   Delta X     New X
                                 (Linear)    (Quad)   (Total)
    X1        0.00000   0.00000   0.00000   0.00000   0.00000   0.00000
    Y1        0.00000  -0.00000   0.00000  -0.00000   0.00000   0.00000
    Z1        0.00000   0.00000   0.00000   0.00000  -0.00000  -0.00000
    X2        1.20029  -0.00008   0.00000  -0.00024  -0.00024   1.20005
    Y2        1.20029  -0.00008   0.00000  -0.00024  -0.00024   1.20005
    Z2        1.20029  -0.00008   0.00000  -0.00024  -0.00024   1.20005
    X3       -1.20029   0.00008   0.00000   0.00024   0.00024  -1.20005
    Y3       -1.20029   0.00008   0.00000   0.00024   0.00024  -1.20005
    Z3        1.20029  -0.00008   0.00000  -0.00024  -0.00024   1.20005
    X4       -1.20029   0.00008   0.00000   0.00024   0.00024  -1.20005
    Y4        1.20029  -0.00008   0.00000  -0.00024  -0.00024   1.20005
    Z4       -1.20029   0.00008   0.00000   0.00024   0.00024  -1.20005
    X5        1.20029  -0.00008   0.00000  -0.00024  -0.00024   1.20005
    Y5       -1.20029   0.00008   0.00000   0.00024   0.00024  -1.20005
    Z5       -1.20029   0.00008   0.00000   0.00024   0.00024  -1.20005
         Item               Value     Threshold  Converged?
 Maximum Force            0.000084     0.000450     YES
 RMS     Force            0.000075     0.000300     YES
 Maximum Displacement     0.000241     0.001800     YES
 RMS     Displacement     0.000216     0.001200     YES
 Predicted change in Energy=-1.216955D-07
 Optimization completed.
    -- Stationary point found.
 GradGradGradGradGradGradGradGradGradGradGradGradGradGradGradGradGradGrad

 Leave Link  103 at Thu Sep  5 22:26:40 2019, MaxMem=  2684354560 cpu:         0.2
 (Enter /soft/gaussian/09-e.01/g09/l9999.exe)

 Test job not archived.
 1\1\GINC-B442\Freq\RB3LYP\CC-pVDZ\C1H4\ELLIOTT\05-Sep-2019\0\\#P b3lyp
 /cc-pvdz # SCF=(xqc) # Freq=() # IOp(7/33=1) # int=ultrafine\\comment:
 \\0,1\C,0.,0.,0.\H,0.635167,0.635167,0.635167\H,-0.635167,-0.635167,0.
 635167\H,-0.635167,0.635167,-0.635167\H,0.635167,-0.635167,-0.635167\\
 Version=ES64L-G09RevE.01\State=1-A1\HF=-40.5163488\RMSD=1.049e-09\RMSF
 =7.526e-05\ZeroPoint=0.0443299\Thermal=0.0472033\Dipole=0.,0.,0.\Dipol
 eDeriv=0.0019831,0.,0.,0.,0.0019831,0.,0.,0.,0.0019831,-0.0004958,-0.0
 652463,-0.0652463,-0.0652463,-0.0004958,-0.0652463,-0.0652463,-0.06524
 63,-0.0004958,-0.0004958,-0.0652463,0.0652463,-0.0652463,-0.0004958,0.
 0652463,0.0652463,0.0652463,-0.0004958,-0.0004958,0.0652463,-0.0652463
 ,0.0652463,-0.0004958,0.0652463,-0.0652463,0.0652463,-0.0004958,-0.000
 4958,0.0652463,0.0652463,0.0652463,-0.0004958,-0.0652463,0.0652463,-0.
 0652463,-0.0004958\Polar=13.4131429,0.,13.4131429,0.,0.,13.4131429\PG=
 TD [O(C1),4C3(H1)]\NImag=0\\0.54138795,0.,0.54138795,0.,0.,0.54138795,
 -0.13534699,-0.09217585,-0.09217585,0.14342286,-0.09217585,-0.13534699
 ,-0.09217585,0.10050410,0.14342286,-0.09217585,-0.09217585,-0.13534699
 ,0.10050410,0.10050410,0.14342286,-0.13534699,-0.09217585,0.09217585,-
 0.01015471,-0.00832825,0.01114430,0.14342286,-0.09217585,-0.13534699,0
 .09217585,-0.00832825,-0.01015471,0.01114430,0.10050410,0.14342286,0.0
 9217585,0.09217585,-0.13534699,-0.01114430,-0.01114430,0.01223355,-0.1
 0050410,-0.10050410,0.14342286,-0.13534699,0.09217585,-0.09217585,-0.0
 1015471,0.01114430,-0.00832825,0.01223355,-0.01114430,0.01114430,0.143
 42286,0.09217585,-0.13534699,0.09217585,-0.01114430,0.01223355,-0.0111
 4430,0.01114430,-0.01015471,0.00832825,-0.10050410,0.14342286,-0.09217
 585,0.09217585,-0.13534699,-0.00832825,0.01114430,-0.01015471,-0.01114
 430,0.00832825,-0.01015471,0.10050410,-0.10050410,0.14342286,-0.135346
 99,0.09217585,0.09217585,0.01223355,-0.01114430,-0.01114430,-0.0101547
 1,0.01114430,0.00832825,-0.01015471,0.00832825,0.01114430,0.14342286,0
 .09217585,-0.13534699,-0.09217585,0.01114430,-0.01015471,-0.00832825,-
 0.01114430,0.01223355,0.01114430,0.00832825,-0.01015471,-0.01114430,-0
 .10050410,0.14342286,0.09217585,-0.09217585,-0.13534699,0.01114430,-0.
 00832825,-0.01015471,0.00832825,-0.01114430,-0.01015471,-0.01114430,0.
 01114430,0.01223355,-0.10050410,0.10050410,0.14342286\\0.,0.,0.,0.0000
 8414,0.00008414,0.00008414,-0.00008414,-0.00008414,0.00008414,-0.00008
 414,0.00008414,-0.00008414,0.00008414,-0.00008414,-0.00008414\\\@


 I take a simple view of life: keep your eyes open and get on with it.
 -- Laurence Olivier
 Job cpu time:       0 days  0 hours  0 minutes 25.2 seconds.
 File lengths (MBytes):  RWF=    132 Int=      0 D2E=      0 Chk=      2 Scr=      2
 Normal termination of Gaussian 09 at Thu Sep  5 22:26:40 2019.
