
    -----------------------------------------------------------------------
          Psi4: An Open-Source Ab Initio Electronic Structure Package
                               Psi4 1.3.2 release

                         Git: Rev {HEAD} ecbda83 


    R. M. Parrish, L. A. Burns, D. G. A. Smith, A. C. Simmonett,
    A. E. DePrince III, E. G. Hohenstein, U. Bozkaya, A. Yu. Sokolov,
    R. Di Remigio, R. M. Richard, J. F. Gonthier, A. M. James,
    H. R. McAlexander, A. Kumar, M. Saitow, X. Wang, B. P. Pritchard,
    P. Verma, H. F. Schaefer III, K. Patkowski, R. A. King, E. F. Valeev,
    F. A. Evangelista, J. M. Turney, T. D. Crawford, and C. D. Sherrill,
    J. Chem. Theory Comput. 13(7) pp 3185--3197 (2017).
    (doi: 10.1021/acs.jctc.7b00174)


                         Additional Contributions by
    P. Kraus, H. Kruse, M. H. Lechner, M. C. Schieber, R. A. Shaw,
    A. Alenaizan, R. Galvelis, Z. L. Glick, S. Lehtola, and J. P. Misiewicz

    -----------------------------------------------------------------------


    Psi4 started on: Friday, 23 August 2019 03:35PM

    Process ID: 19232
    Host:       blueslogin2
    PSIDATADIR: /home/elliott/miniconda2/envs/pacc-env-mini/share/psi4
    Memory:     500.0 MiB
    Threads:    1
    
  ==> Input File <==

--------------------------------------------------------------------------
#! 
memory 1 GB

molecule {

0 2
C  
H  1    R1 
H  1    R2  2    A2 
H  1    R3  2    A3  3    D3 
R1   =   1.082548
R2   =   1.082548
A2   = 120.000000
R3   =   1.082548
A3   = 120.000000
D3   = 180.000000
}
set basis cc-pvdz
set scf_type pk
set reference uks
set mp2_type conv
optimize('B3LYP')
--------------------------------------------------------------------------

  Memory set to 953.674 MiB by Python driver.
gradient() will perform analytic gradient computation.

*** tstart() called on blueslogin2
*** at Fri Aug 23 15:35:42 2019

   => Loading Basis Set <=

    Name: CC-PVDZ
    Role: ORBITAL
    Keyword: BASIS
    atoms 1   entry C          line   138 file /home/elliott/miniconda2/envs/pacc-env-mini/share/psi4/basis/cc-pvdz.gbs 
    atoms 2-4 entry H          line    22 file /home/elliott/miniconda2/envs/pacc-env-mini/share/psi4/basis/cc-pvdz.gbs 


         ---------------------------------------------------------
                                   SCF
               by Justin Turney, Rob Parrish, Andy Simmonett
                          and Daniel G. A. Smith
                              UKS Reference
                        1 Threads,    953 MiB Core
         ---------------------------------------------------------

  ==> Geometry <==

    Molecular point group: c2v
    Full point group: D3h

    Geometry (in Angstrom), charge = 0, multiplicity = 2:

       Center              X                  Y                   Z               Mass       
    ------------   -----------------  -----------------  -----------------  -----------------
         C            0.000000000000     0.000000000000     0.000000000000    12.000000000000
         H            0.000000000000     0.000000000000     1.082548000000     1.007825032230
         H            0.000000000000     0.937514068816    -0.541274000000     1.007825032230
         H            0.000000000000    -0.937514068816    -0.541274000000     1.007825032230

  Running in c2v symmetry.

  Rotational constants: A =      9.51537  B =      9.51537  C =      4.75769 [cm^-1]
  Rotational constants: A = 285263.67653  B = 285263.67653  C = 142631.83827 [MHz]
  Nuclear repulsion =    9.645532213950808

  Charge       = 0
  Multiplicity = 2
  Electrons    = 9
  Nalpha       = 5
  Nbeta        = 4

  ==> Algorithm <==

  SCF Algorithm Type is PK.
  DIIS enabled.
  MOM disabled.
  Fractional occupation disabled.
  Guess Type is SAD.
  Energy threshold   = 1.00e-08
  Density threshold  = 1.00e-08
  Integral threshold = 0.00e+00

  ==> Primary Basis <==

  Basis Set: CC-PVDZ
    Blend: CC-PVDZ
    Number of shells: 15
    Number of basis function: 29
    Number of Cartesian functions: 30
    Spherical Harmonics?: true
    Max angular momentum: 2

  ==> DFT Potential <==

   => Composite Functional: B3LYP <= 

    B3LYP Hyb-GGA Exchange-Correlation Functional

    P. J. Stephens, F. J. Devlin, C. F. Chabalowski, and M. J. Frisch, J. Phys. Chem. 98, 11623 (1994)

    Deriv               =              1
    GGA                 =           TRUE
    Meta                =          FALSE

    Exchange Hybrid     =           TRUE
    MP2 Hybrid          =          FALSE

   => Exchange Functionals <=

    0.0800   Slater exchange
    0.7200         Becke 88

   => Exact (HF) Exchange <=

    0.2000               HF 

   => Correlation Functionals <=

    0.1900   Vosko, Wilk & Nusair (VWN5_RPA)
    0.8100   Lee, Yang & Parr

   => Molecular Quadrature <=

    Radial Scheme          =       TREUTLER
    Pruning Scheme         =           FLAT
    Nuclear Scheme         =       TREUTLER

    BS radius alpha        =              1
    Pruning alpha          =              1
    Radial Points          =             75
    Spherical Points       =            302
    Total Points           =          88854
    Total Blocks           =            733
    Max Points             =            255
    Max Functions          =             29

  ==> Pre-Iterations <==

   -------------------------------------------------------
    Irrep   Nso     Nmo     Nalpha   Nbeta   Ndocc  Nsocc
   -------------------------------------------------------
     A1        14      14       0       0       0       0
     A2         2       2       0       0       0       0
     B1         5       5       0       0       0       0
     B2         8       8       0       0       0       0
   -------------------------------------------------------
    Total      29      29       5       4       4       1
   -------------------------------------------------------

  ==> Integral Setup <==

  Using in-core PK algorithm.
   Calculation information:
      Number of atoms:                   4
      Number of AO shells:              15
      Number of primitives:             37
      Number of atomic orbitals:        30
      Number of basis functions:        29

      Integral cutoff                 1.00e-12
      Number of threads:                 1

  Performing in-core PK
  Using 189660 doubles for integral storage.
  We computed 7260 shell quartets total.
  Whereas there are 7260 unique shell quartets.

  ==> DiskJK: Disk-Based J/K Matrices <==

    J tasked:                  Yes
    K tasked:                  Yes
    wK tasked:                  No
    Memory [MiB]:              640
    Schwarz Cutoff:          1E-12

    OpenMP threads:              1

  Cached 100.0% of DFT collocation blocks in 0.073 [GiB].

  Minimum eigenvalue in the overlap matrix is 2.7805562536E-02.
  Using Symmetric Orthogonalization.

  SCF Guess: Superposition of Atomic Densities via on-the-fly atomic UHF.

  ==> Iterations <==

                        Total Energy        Delta E     RMS |[F,P]|

   @UKS iter SAD:   -39.37740132247875   -3.93774e+01   0.00000e+00 
   @UKS iter   1:   -39.73198348438670   -3.54582e-01   2.52091e-02 DIIS
   @UKS iter   2:   -39.73464371809128   -2.66023e-03   2.45241e-02 DIIS
   @UKS iter   3:   -39.83886687109712   -1.04223e-01   4.36984e-04 DIIS
   @UKS iter   4:   -39.83892438110996   -5.75100e-05   1.11391e-04 DIIS
   @UKS iter   5:   -39.83892990266163   -5.52155e-06   2.35963e-05 DIIS
   @UKS iter   6:   -39.83893015588700   -2.53225e-07   1.75384e-06 DIIS
   @UKS iter   7:   -39.83893015721713   -1.33014e-09   1.74343e-07 DIIS
   @UKS iter   8:   -39.83893015722667   -9.53548e-12   1.15717e-08 DIIS
   @UKS iter   9:   -39.83893015722669   -2.13163e-14   5.12905e-10 DIIS
  Energy and wave function converged.


  ==> Post-Iterations <==

   @Spin Contamination Metric:   3.612672502E-03
   @S^2 Expected:                7.500000000E-01
   @S^2 Observed:                7.536126725E-01
   @S   Expected:                5.000000000E-01
   @S   Observed:                5.000000000E-01

    Orbital Energies [Eh]
    ---------------------

    Alpha Occupied:                                                       

       1A1   -10.196553     2A1    -0.684060     1B2    -0.417762  
       3A1    -0.417762     1B1    -0.229708  

    Alpha Virtual:                                                        

       4A1     0.074949     2B2     0.143339     5A1     0.143340  
       3B2     0.435577     6A1     0.435578     2B1     0.473666  
       7A1     0.491952     4B2     0.659519     8A1     0.659520  
       9A1     0.856823     1A2     0.962261     3B1     0.962262  
       5B2     1.361248     6B2     1.457815    10A1     1.457816  
      11A1     1.491706     4B1     1.601383     2A2     1.844517  
       5B1     1.844517     7B2     2.094716    12A1     2.094716  
      13A1     2.465741    14A1     2.511363     8B2     2.511363  

    Beta Occupied:                                                        

       1A1   -10.182318     2A1    -0.643387     1B2    -0.407609  
       3A1    -0.407609  

    Beta Virtual:                                                         

       1B1    -0.060014     4A1     0.085377     2B2     0.147348  
       5A1     0.147349     3B2     0.438669     6A1     0.438669  
       7A1     0.520957     2B1     0.547987     4B2     0.667079  
       8A1     0.667079     9A1     0.885161     1A2     1.000159  
       3B1     1.000159     5B2     1.357754     6B2     1.461154  
      10A1     1.461155    11A1     1.556523     4B1     1.613490  
       2A2     1.874899     5B1     1.874899     7B2     2.097874  
      12A1     2.097875    13A1     2.471593     8B2     2.518920  
      14A1     2.518921  

    Final Occupation by Irrep:
             A1    A2    B1    B2 
    DOCC [     3,    0,    0,    1 ]
    SOCC [     0,    0,    1,    0 ]

  @UKS Final Energy:   -39.83893015722669

   => Energetics <=

    Nuclear Repulsion Energy =              9.6455322139508084
    One-Electron Energy =                 -71.6001670833314847
    Two-Electron Energy =                  27.3694054512165152
    DFT Exchange-Correlation Energy =      -5.2537007390625305
    Empirical Dispersion Energy =           0.0000000000000000
    VV10 Nonlocal Energy =                  0.0000000000000000
    Total Energy =                        -39.8389301572266916

  UHF NO Occupations:
  HONO-2 :    2 A1 1.9997394
  HONO-1 :    3 A1 1.9987142
  HONO-0 :    1 B1 1.0000000
  LUNO+0 :    4 A1 0.0012858
  LUNO+1 :    5 A1 0.0002606
  LUNO+2 :    2 B2 0.0002606
  LUNO+3 :    6 A1 0.0000002


Computation Completed


Properties will be evaluated at   0.000000,   0.000000,   0.000000 [a0]

Properties computed using the SCF density matrix

  Nuclear Dipole Moment: [e a0]
     X:     0.0000      Y:     0.0000      Z:     0.0000

  Electronic Dipole Moment: [e a0]
     X:     0.0000      Y:     0.0000      Z:    -0.0000

  Dipole Moment: [e a0]
     X:     0.0000      Y:     0.0000      Z:    -0.0000     Total:     0.0000

  Dipole Moment: [D]
     X:     0.0000      Y:     0.0000      Z:    -0.0000     Total:     0.0000


*** tstop() called on blueslogin2 at Fri Aug 23 15:35:46 2019
Module time:
	user time   =       3.73 seconds =       0.06 minutes
	system time =       0.17 seconds =       0.00 minutes
	total time  =          4 seconds =       0.07 minutes
Total time:
	user time   =       3.73 seconds =       0.06 minutes
	system time =       0.17 seconds =       0.00 minutes
	total time  =          4 seconds =       0.07 minutes

*** tstart() called on blueslogin2
*** at Fri Aug 23 15:35:46 2019


         ------------------------------------------------------------
                                   SCF GRAD                          
                          Rob Parrish, Justin Turney,                
                       Andy Simmonett, and Alex Sokolov              
         ------------------------------------------------------------

  ==> Geometry <==

    Molecular point group: c2v
    Full point group: D3h

    Geometry (in Angstrom), charge = 0, multiplicity = 2:

       Center              X                  Y                   Z               Mass       
    ------------   -----------------  -----------------  -----------------  -----------------
         C            0.000000000000     0.000000000000     0.000000000000    12.000000000000
         H            0.000000000000     0.000000000000     1.082548000000     1.007825032230
         H            0.000000000000     0.937514068816    -0.541274000000     1.007825032230
         H            0.000000000000    -0.937514068816    -0.541274000000     1.007825032230

  Nuclear repulsion =    9.645532213950808

  ==> Basis Set <==

  Basis Set: CC-PVDZ
    Blend: CC-PVDZ
    Number of shells: 15
    Number of basis function: 29
    Number of Cartesian functions: 30
    Spherical Harmonics?: true
    Max angular momentum: 2

  ==> DirectJKGrad: Integral-Direct SCF Gradients <==

    Gradient:                    1
    J tasked:                  Yes
    K tasked:                  Yes
    wK tasked:                  No
    Integrals threads:           1
    Schwarz Cutoff:          0E+00

  ==> DFT Potential <==

   => Composite Functional: B3LYP <= 

    B3LYP Hyb-GGA Exchange-Correlation Functional

    P. J. Stephens, F. J. Devlin, C. F. Chabalowski, and M. J. Frisch, J. Phys. Chem. 98, 11623 (1994)

    Deriv               =              1
    GGA                 =           TRUE
    Meta                =          FALSE

    Exchange Hybrid     =           TRUE
    MP2 Hybrid          =          FALSE

   => Exchange Functionals <=

    0.0800   Slater exchange
    0.7200         Becke 88

   => Exact (HF) Exchange <=

    0.2000               HF 

   => Correlation Functionals <=

    0.1900   Vosko, Wilk & Nusair (VWN5_RPA)
    0.8100   Lee, Yang & Parr

   => Molecular Quadrature <=

    Radial Scheme          =       TREUTLER
    Pruning Scheme         =           FLAT
    Nuclear Scheme         =       TREUTLER

    BS radius alpha        =              1
    Pruning alpha          =              1
    Radial Points          =             75
    Spherical Points       =            302
    Total Points           =          88854
    Total Blocks           =            733
    Max Points             =            255
    Max Functions          =             29


  -Total Gradient:
     Atom            X                  Y                   Z
    ------   -----------------  -----------------  -----------------
       1        0.000000000000     0.000000000000     0.000005654974
       2        0.000000000000     0.000000000000    -0.005825014954
       3        0.000000000000    -0.005044371980     0.002912677201
       4       -0.000000000000     0.005044371980     0.002912677201


*** tstop() called on blueslogin2 at Fri Aug 23 15:35:47 2019
Module time:
	user time   =       0.72 seconds =       0.01 minutes
	system time =       0.01 seconds =       0.00 minutes
	total time  =          1 seconds =       0.02 minutes
Total time:
	user time   =       4.45 seconds =       0.07 minutes
	system time =       0.18 seconds =       0.00 minutes
	total time  =          5 seconds =       0.08 minutes

			-----------------------------------------
			 OPTKING 2.0: for geometry optimizations 
			  - R.A. King,  Bethel University        
			-----------------------------------------

	Internal coordinates to be generated automatically.
	Detected frag 1 with atoms:  1 2 3 4
	---Fragment 1 Bond Connectivity---
	 1 : 2 3 4
	 2 : 1
	 3 : 1
	 4 : 1

	---Fragment 1 Geometry and Gradient---
	 C           0.0000000000        0.0000000000        0.0000000000
	 H           0.0000000000        0.0000000000        2.0457192377
	 H           0.0000000000        1.7716448288       -1.0228596188
	 H           0.0000000000       -1.7716448288       -1.0228596188
	             0.0000000000        0.0000000000        0.0000056550
	             0.0000000000        0.0000000000       -0.0058250150
	             0.0000000000       -0.0050443720        0.0029126772
	            -0.0000000000        0.0050443720        0.0029126772

	Previous optimization step data not found.  Starting new optimization.

	---Fragment 1 Intrafragment Coordinates---
	 - Coordinate -           - BOHR/RAD -       - ANG/DEG -
	 R(1,2)           =         2.045719	       1.082548
	 R(1,3)           =         2.045719	       1.082548
	 R(1,4)           =         2.045719	       1.082548
	 B(2,1,3)         =         2.094395	     120.000000
	 B(2,1,4)         =         2.094395	     120.000000
	 B(3,1,4)         =         2.094395	     120.000000

	Current energy   :       -39.8389301572

	Generating empirical Hessian (Schlegel '84) for each fragment.
	Taking RFO optimization step.
	Going to follow RFO solution 1.
	Using RFO vector 1.
	Norm of target step-size    0.02825
	Projected energy change by RFO approximation:        -0.0002846801

	Back-transformation to cartesian coordinates...
	Successfully converged to displaced geometry.

	--- Internal Coordinate Step in ANG or DEG, aJ/ANG or AJ/DEG ---
	 ---------------------------------------------------------------------------
	   Coordinate                Previous        Force       Change         New 
	   ----------                --------       ------       ------       ------
	    1 R(1,2)          =      1.082548     0.048003     0.008633     1.091181
	    2 R(1,3)          =      1.082548     0.047983     0.008629     1.091177
	    3 R(1,4)          =      1.082548     0.047983     0.008629     1.091177
	    4 B(2,1,3)        =    120.000000    -0.000000    -0.000251   119.999749
	    5 B(2,1,4)        =    120.000000    -0.000000    -0.000251   119.999749
	    6 B(3,1,4)        =    120.000000     0.000000     0.000503   120.000503
	 ---------------------------------------------------------------------------
	Successfully symmetrized geometry.

  ==> Convergence Check <==

  Measures of convergence in internal coordinates in au.
  Criteria marked as inactive (o), active & met (*), and active & unmet ( ).
  --------------------------------------------------------------------------------------------- ~
   Step     Total Energy     Delta E     MAX Force     RMS Force      MAX Disp      RMS Disp    ~
  --------------------------------------------------------------------------------------------- ~
    Convergence Criteria    1.00e-06 *    3.00e-04 *             o    1.20e-03 *             o  ~
  --------------------------------------------------------------------------------------------- ~
      1     -39.83893016   -3.98e+01      5.83e-03      4.12e-03 o    1.63e-02      1.15e-02 o  ~
  ---------------------------------------------------------------------------------------------

	Writing optimization data to binary file.
	Structure for next step:
	Cartesian Geometry (in Angstrom)
	    C     0.0000000000   0.0000000000  -0.0000029510
	    H     0.0000000000   0.0000000000   1.0911775805
	    H     0.0000000000   0.9449894135  -0.5455873147
	    H     0.0000000000  -0.9449894135  -0.5455873147
			--------------------------
			 OPTKING Finished Execution 
			--------------------------

    Structure for next step:
    Molecular point group: c2v
    Full point group: C2v

    Geometry (in Angstrom), charge = 0, multiplicity = 2:

    C       
    H             1          R1
    H             1          R2      2          A2
    H             1          R3      2          A3      3          D3

    A2        =  119.9997485975
    A3        =  119.9997485975
    D3        = -180.0000000000
    R1        =    1.0911805359
    R2        =    1.0911770245
    R3        =    1.0911770245

gradient() will perform analytic gradient computation.

*** tstart() called on blueslogin2
*** at Fri Aug 23 15:35:47 2019

   => Loading Basis Set <=

    Name: CC-PVDZ
    Role: ORBITAL
    Keyword: BASIS
    atoms 1   entry C          line   138 file /home/elliott/miniconda2/envs/pacc-env-mini/share/psi4/basis/cc-pvdz.gbs 
    atoms 2-4 entry H          line    22 file /home/elliott/miniconda2/envs/pacc-env-mini/share/psi4/basis/cc-pvdz.gbs 


         ---------------------------------------------------------
                                   SCF
               by Justin Turney, Rob Parrish, Andy Simmonett
                          and Daniel G. A. Smith
                              UKS Reference
                        1 Threads,    953 MiB Core
         ---------------------------------------------------------

  ==> Geometry <==

    Molecular point group: c2v
    Full point group: C2v

    Geometry (in Angstrom), charge = 0, multiplicity = 2:

       Center              X                  Y                   Z               Mass       
    ------------   -----------------  -----------------  -----------------  -----------------
         C            0.000000000000     0.000000000000    -0.000000791865    12.000000000000
         H            0.000000000000     0.000000000000     1.091179743993     1.007825032230
         H            0.000000000000     0.944989417171    -0.545585157697     1.007825032230
         H            0.000000000000    -0.944989417171    -0.545585157697     1.007825032230

  Running in c2v symmetry.

  Rotational constants: A =      9.36548  B =      9.36542  C =      4.68273 [cm^-1]
  Rotational constants: A = 280770.00525  B = 280768.36484  C = 140384.59252 [MHz]
  Nuclear repulsion =    9.569245110882441

  Charge       = 0
  Multiplicity = 2
  Electrons    = 9
  Nalpha       = 5
  Nbeta        = 4

  ==> Algorithm <==

  SCF Algorithm Type is PK.
  DIIS enabled.
  MOM disabled.
  Fractional occupation disabled.
  Guess Type is READ.
  Energy threshold   = 1.00e-08
  Density threshold  = 1.00e-08
  Integral threshold = 0.00e+00

  ==> Primary Basis <==

  Basis Set: CC-PVDZ
    Blend: CC-PVDZ
    Number of shells: 15
    Number of basis function: 29
    Number of Cartesian functions: 30
    Spherical Harmonics?: true
    Max angular momentum: 2

  ==> DFT Potential <==

   => Composite Functional: B3LYP <= 

    B3LYP Hyb-GGA Exchange-Correlation Functional

    P. J. Stephens, F. J. Devlin, C. F. Chabalowski, and M. J. Frisch, J. Phys. Chem. 98, 11623 (1994)

    Deriv               =              1
    GGA                 =           TRUE
    Meta                =          FALSE

    Exchange Hybrid     =           TRUE
    MP2 Hybrid          =          FALSE

   => Exchange Functionals <=

    0.0800   Slater exchange
    0.7200         Becke 88

   => Exact (HF) Exchange <=

    0.2000               HF 

   => Correlation Functionals <=

    0.1900   Vosko, Wilk & Nusair (VWN5_RPA)
    0.8100   Lee, Yang & Parr

   => Molecular Quadrature <=

    Radial Scheme          =       TREUTLER
    Pruning Scheme         =           FLAT
    Nuclear Scheme         =       TREUTLER

    BS radius alpha        =              1
    Pruning alpha          =              1
    Radial Points          =             75
    Spherical Points       =            302
    Total Points           =          88860
    Total Blocks           =            724
    Max Points             =            256
    Max Functions          =             29

   => Loading Basis Set <=

    Name: CC-PVDZ
    Role: ORBITAL
    Keyword: BASIS
    atoms 1   entry C          line   138 file /home/elliott/miniconda2/envs/pacc-env-mini/share/psi4/basis/cc-pvdz.gbs 
    atoms 2-4 entry H          line    22 file /home/elliott/miniconda2/envs/pacc-env-mini/share/psi4/basis/cc-pvdz.gbs 

  Reading orbitals from file 180, no projection.

  ==> Pre-Iterations <==

   -------------------------------------------------------
    Irrep   Nso     Nmo     Nalpha   Nbeta   Ndocc  Nsocc
   -------------------------------------------------------
     A1        14      14       0       0       0       0
     A2         2       2       0       0       0       0
     B1         5       5       0       0       0       0
     B2         8       8       0       0       0       0
   -------------------------------------------------------
    Total      29      29       5       4       4       1
   -------------------------------------------------------

  ==> Integral Setup <==

  Using in-core PK algorithm.
   Calculation information:
      Number of atoms:                   4
      Number of AO shells:              15
      Number of primitives:             37
      Number of atomic orbitals:        30
      Number of basis functions:        29

      Integral cutoff                 1.00e-12
      Number of threads:                 1

  Performing in-core PK
  Using 189660 doubles for integral storage.
  We computed 7260 shell quartets total.
  Whereas there are 7260 unique shell quartets.

  ==> DiskJK: Disk-Based J/K Matrices <==

    J tasked:                  Yes
    K tasked:                  Yes
    wK tasked:                  No
    Memory [MiB]:              640
    Schwarz Cutoff:          1E-12

    OpenMP threads:              1

  Cached 100.0% of DFT collocation blocks in 0.073 [GiB].

  Minimum eigenvalue in the overlap matrix is 2.8259324953E-02.
  Using Symmetric Orthogonalization.

  SCF Guess: Orbitals guess was supplied from a previous computation.

  ==> Iterations <==

                        Total Energy        Delta E     RMS |[F,P]|

   @UKS iter   0:   -39.83187884752993   -3.98319e+01   1.09908e-03 
   @UKS iter   1:   -39.83905029640066   -7.17145e-03   2.69213e-04 DIIS
   @UKS iter   2:   -39.83905106377924   -7.67379e-07   2.84803e-04 DIIS
   @UKS iter   3:   -39.83906429833061   -1.32346e-05   6.89524e-06 DIIS
   @UKS iter   4:   -39.83906430742523   -9.09461e-09   5.74646e-07 DIIS
   @UKS iter   5:   -39.83906430752280   -9.75788e-11   1.27972e-07 DIIS
   @UKS iter   6:   -39.83906430753096   -8.15703e-12   1.53570e-08 DIIS
   @UKS iter   7:   -39.83906430753109   -1.27898e-13   1.02988e-09 DIIS
  Energy and wave function converged.


  ==> Post-Iterations <==

   @Spin Contamination Metric:   3.709595759E-03
   @S^2 Expected:                7.500000000E-01
   @S^2 Observed:                7.537095958E-01
   @S   Expected:                5.000000000E-01
   @S   Observed:                5.000000000E-01

    Orbital Energies [Eh]
    ---------------------

    Alpha Occupied:                                                       

       1A1   -10.198914     2A1    -0.681707     1B2    -0.415919  
       3A1    -0.415918     1B1    -0.229737  

    Alpha Virtual:                                                        

       4A1     0.072892     5A1     0.141683     2B2     0.141683  
       6A1     0.436068     3B2     0.436070     2B1     0.473462  
       7A1     0.487661     8A1     0.654988     4B2     0.654990  
       9A1     0.854969     1A2     0.961124     3B1     0.961125  
       5B2     1.356104     6B2     1.451245    10A1     1.451247  
      11A1     1.486162     4B1     1.595463     5B1     1.838294  
       2A2     1.838301    12A1     2.080296     7B2     2.080300  
      13A1     2.444217     8B2     2.492931    14A1     2.492931  

    Beta Occupied:                                                        

       1A1   -10.184637     2A1    -0.640931     1B2    -0.405874  
       3A1    -0.405872  

    Beta Virtual:                                                         

       1B1    -0.059883     4A1     0.083573     5A1     0.145819  
       2B2     0.145819     6A1     0.439062     3B2     0.439064  
       7A1     0.515783     2B1     0.547964     8A1     0.662597  
       4B2     0.662598     9A1     0.883591     1A2     0.998836  
       3B1     0.998837     5B2     1.352497     6B2     1.454518  
      10A1     1.454520    11A1     1.551307     4B1     1.607087  
       5B1     1.868662     2A2     1.868668    12A1     2.083311  
       7B2     2.083315    13A1     2.449899     8B2     2.500514  
      14A1     2.500515  

    Final Occupation by Irrep:
             A1    A2    B1    B2 
    DOCC [     3,    0,    0,    1 ]
    SOCC [     0,    0,    1,    0 ]

  @UKS Final Energy:   -39.83906430753109

   => Energetics <=

    Nuclear Repulsion Energy =              9.5692451108824415
    One-Electron Energy =                 -71.4602754571435526
    Two-Electron Energy =                  27.2982730239339837
    DFT Exchange-Correlation Energy =      -5.2463069852039697
    Empirical Dispersion Energy =           0.0000000000000000
    VV10 Nonlocal Energy =                  0.0000000000000000
    Total Energy =                        -39.8390643075311033

  UHF NO Occupations:
  HONO-2 :    2 A1 1.9997294
  HONO-1 :    3 A1 1.9986856
  HONO-0 :    1 B1 1.0000000
  LUNO+0 :    4 A1 0.0013144
  LUNO+1 :    5 A1 0.0002706
  LUNO+2 :    2 B2 0.0002706
  LUNO+3 :    6 A1 0.0000002


Computation Completed


Properties will be evaluated at   0.000000,   0.000000,   0.000000 [a0]

Properties computed using the SCF density matrix

  Nuclear Dipole Moment: [e a0]
     X:     0.0000      Y:     0.0000      Z:     0.0000

  Electronic Dipole Moment: [e a0]
     X:     0.0000      Y:     0.0000      Z:    -0.0000

  Dipole Moment: [e a0]
     X:     0.0000      Y:     0.0000      Z:     0.0000     Total:     0.0000

  Dipole Moment: [D]
     X:     0.0000      Y:     0.0000      Z:     0.0000     Total:     0.0000


*** tstop() called on blueslogin2 at Fri Aug 23 15:35:50 2019
Module time:
	user time   =       2.63 seconds =       0.04 minutes
	system time =       0.09 seconds =       0.00 minutes
	total time  =          3 seconds =       0.05 minutes
Total time:
	user time   =       7.09 seconds =       0.12 minutes
	system time =       0.28 seconds =       0.00 minutes
	total time  =          8 seconds =       0.13 minutes

*** tstart() called on blueslogin2
*** at Fri Aug 23 15:35:50 2019


         ------------------------------------------------------------
                                   SCF GRAD                          
                          Rob Parrish, Justin Turney,                
                       Andy Simmonett, and Alex Sokolov              
         ------------------------------------------------------------

  ==> Geometry <==

    Molecular point group: c2v
    Full point group: C2v

    Geometry (in Angstrom), charge = 0, multiplicity = 2:

       Center              X                  Y                   Z               Mass       
    ------------   -----------------  -----------------  -----------------  -----------------
         C            0.000000000000     0.000000000000    -0.000000791865    12.000000000000
         H            0.000000000000     0.000000000000     1.091179743993     1.007825032230
         H            0.000000000000     0.944989417171    -0.545585157697     1.007825032230
         H            0.000000000000    -0.944989417171    -0.545585157697     1.007825032230

  Nuclear repulsion =    9.569245110882441

  ==> Basis Set <==

  Basis Set: CC-PVDZ
    Blend: CC-PVDZ
    Number of shells: 15
    Number of basis function: 29
    Number of Cartesian functions: 30
    Spherical Harmonics?: true
    Max angular momentum: 2

  ==> DirectJKGrad: Integral-Direct SCF Gradients <==

    Gradient:                    1
    J tasked:                  Yes
    K tasked:                  Yes
    wK tasked:                  No
    Integrals threads:           1
    Schwarz Cutoff:          0E+00

  ==> DFT Potential <==

   => Composite Functional: B3LYP <= 

    B3LYP Hyb-GGA Exchange-Correlation Functional

    P. J. Stephens, F. J. Devlin, C. F. Chabalowski, and M. J. Frisch, J. Phys. Chem. 98, 11623 (1994)

    Deriv               =              1
    GGA                 =           TRUE
    Meta                =          FALSE

    Exchange Hybrid     =           TRUE
    MP2 Hybrid          =          FALSE

   => Exchange Functionals <=

    0.0800   Slater exchange
    0.7200         Becke 88

   => Exact (HF) Exchange <=

    0.2000               HF 

   => Correlation Functionals <=

    0.1900   Vosko, Wilk & Nusair (VWN5_RPA)
    0.8100   Lee, Yang & Parr

   => Molecular Quadrature <=

    Radial Scheme          =       TREUTLER
    Pruning Scheme         =           FLAT
    Nuclear Scheme         =       TREUTLER

    BS radius alpha        =              1
    Pruning alpha          =              1
    Radial Points          =             75
    Spherical Points       =            302
    Total Points           =          88860
    Total Blocks           =            724
    Max Points             =            256
    Max Functions          =             29


  -Total Gradient:
     Atom            X                  Y                   Z
    ------   -----------------  -----------------  -----------------
       1        0.000000000000     0.000000000000    -0.000007545097
       2        0.000000000000     0.000000000000     0.000292375709
       3       -0.000000000000     0.000251471919    -0.000144735777
       4        0.000000000000    -0.000251471919    -0.000144735777


*** tstop() called on blueslogin2 at Fri Aug 23 15:35:50 2019
Module time:
	user time   =       0.73 seconds =       0.01 minutes
	system time =       0.01 seconds =       0.00 minutes
	total time  =          0 seconds =       0.00 minutes
Total time:
	user time   =       7.82 seconds =       0.13 minutes
	system time =       0.29 seconds =       0.00 minutes
	total time  =          8 seconds =       0.13 minutes

			-----------------------------------------
			 OPTKING 2.0: for geometry optimizations 
			  - R.A. King,  Bethel University        
			-----------------------------------------

	Previous internal coordinate definitions found.
	---Fragment 1 Geometry and Gradient---
	 C           0.0000000000        0.0000000000       -0.0000014964
	 H           0.0000000000        0.0000000000        2.0620308698
	 H           0.0000000000        1.7857711899       -1.0310065262
	 H           0.0000000000       -1.7857711899       -1.0310065262
	             0.0000000000        0.0000000000       -0.0000075451
	             0.0000000000        0.0000000000        0.0002923757
	            -0.0000000000        0.0002514719       -0.0001447358
	             0.0000000000       -0.0002514719       -0.0001447358

	---Fragment 1 Intrafragment Coordinates---
	 - Coordinate -           - BOHR/RAD -       - ANG/DEG -
	 R(1,2)           =         2.062032	       1.091181
	 R(1,3)           =         2.062026	       1.091177
	 R(1,4)           =         2.062026	       1.091177
	 B(2,1,3)         =         2.094391	     119.999749
	 B(2,1,4)         =         2.094391	     119.999749
	 B(3,1,4)         =         2.094404	     120.000503

	Current energy   :       -39.8390643075

	Energy change for the previous step:
		Projected    :        -0.0002846801
		Actual       :        -0.0001341503

	Performing BFGS update.
	Previous computed or guess Hessian on step 1.
	Steps to be used in Hessian update: 1
	Taking RFO optimization step.
	Going to follow RFO solution 1.
	Using RFO vector 1.
	Norm of target step-size    0.00134
	Projected energy change by RFO approximation:        -0.0000006795

	Back-transformation to cartesian coordinates...
	Successfully converged to displaced geometry.

	--- Internal Coordinate Step in ANG or DEG, aJ/ANG or AJ/DEG ---
	 ---------------------------------------------------------------------------
	   Coordinate                Previous        Force       Change         New 
	   ----------                --------       ------       ------       ------
	    1 R(1,2)          =      1.091181    -0.002418    -0.000414     1.090766
	    2 R(1,3)          =      1.091177    -0.002386    -0.000409     1.090768
	    3 R(1,4)          =      1.091177    -0.002386    -0.000409     1.090768
	    4 B(2,1,3)        =    119.999749     0.000000     0.000327   120.000076
	    5 B(2,1,4)        =    119.999749     0.000000     0.000327   120.000076
	    6 B(3,1,4)        =    120.000503    -0.000000    -0.000654   119.999849
	 ---------------------------------------------------------------------------
	Successfully symmetrized geometry.

  ==> Convergence Check <==

  Measures of convergence in internal coordinates in au.
  Criteria marked as inactive (o), active & met (*), and active & unmet ( ).
  ---------------------------------------------------------------------------------------------
   Step     Total Energy     Delta E     MAX Force     RMS Force      MAX Disp      RMS Disp   
  ---------------------------------------------------------------------------------------------
    Convergence Criteria    1.00e-06 *    3.00e-04 *             o    1.20e-03 *             o
  ---------------------------------------------------------------------------------------------
      2     -39.83906431   -1.34e-04      2.94e-04 *    2.06e-04 o    7.83e-04 *    5.49e-04 o  ~
  ---------------------------------------------------------------------------------------------


  **** Optimization is complete! (in 2 steps) ****

  ==> Optimization Summary <==

  Measures of convergence in internal coordinates in au.
  --------------------------------------------------------------------------------------------------------------- ~
   Step         Total Energy             Delta E       MAX Force       RMS Force        MAX Disp        RMS Disp  ~
  --------------------------------------------------------------------------------------------------------------- ~
      1     -39.838930157227    -39.838930157227      0.00582651      0.00411885      0.01631313      0.01153200  ~
      2     -39.839064307531     -0.000134150304      0.00029354      0.00020570      0.00078276      0.00054854  ~
  --------------------------------------------------------------------------------------------------------------- ~

	Writing optimization data to binary file.
	Final energy is    -39.8390643075311
	Final (previous) structure:
	Cartesian Geometry (in Angstrom)
	    C     0.0000000000   0.0000000000  -0.0000007919
	    H     0.0000000000   0.0000000000   1.0911797397
	    H     0.0000000000   0.9449894135  -0.5455851556
	    H     0.0000000000  -0.9449894135  -0.5455851556
	Saving final (previous) structure.
			--------------------------
			 OPTKING Finished Execution 
			--------------------------

    Final optimized geometry and variables:
    Molecular point group: c2v
    Full point group: C2v

    Geometry (in Angstrom), charge = 0, multiplicity = 2:

    C       
    H             1          R1
    H             1          R2      2          A2
    H             1          R3      2          A3      3          D3

    A2        =  119.9997485975
    A3        =  119.9997485975
    D3        = -180.0000000000
    R1        =    1.0911805359
    R2        =    1.0911770245
    R3        =    1.0911770245

	Removing binary optimization data file.
	Cleaning optimization helper files.

    Psi4 stopped on: Friday, 23 August 2019 03:35PM
    Psi4 wall time for execution: 0:00:08.22

*** Psi4 exiting successfully. Buy a developer a beer!
