
 Primary working directories    : /data/scratch
 Secondary working directories  : /data/scratch
 Wavefunction directory         : /home/carlo/wfu/
 Main file repository           : /data/scratch/

 ARCHNAME  : Linux/x86_64
 FC        : /opt/intel/composer_xe_2013_sp1.1.106/bin/intel64/ifort
 FCVERSION : 14.0.1
 BLASLIB   : -Wl,-_start-group /opt/intel/mkl/lib/intel64/libmkl_intel_ilp64.a /opt/intel/mkl/lib/intel64/libmkl_sequential.a /opt/intel/mkl/lib/intel64/libmkl_core.a -Wl,-_end-group
 id        : polimi

 Nodes     nprocs
 tt106        4
 ga_uses_ma=false, calling ma_init with nominal heap.
 GA-space will be limited to   8.0 MW (determined by -G option)

 Using customized tuning parameters: mindgm=16; mindgv=24; mindgc=8; mindgr=1; noblas=0; mincuda=1000; minvec=7
 default implementation of scratch files=sf  

  memory,        1000 ,m
  memory,500,m
  geometry={angstrom
   c91
   c92 c91 rcc91
   h93 c92 rcc92 c91 accc91
   h94 c92 rcc93 c91 ahcc91 h93 b91
   h95 c91 rch91 c92 ahcc92 h93 b92
  }
  RCC91                          =    1.3000000000000000
  RCC92                          =    1.0851999999999999
  RCC93                          =    1.0900000000000001
  RCH91                          =    1.0786000000000000
  ACCC91                         =    122.01770000000000
  AHCC91                         =    121.63379999999999
  AHCC92                         =    137.87270000000001
  B91                            =    179.97499999999999
  B92                            =    179.98470000000000
 
  SET,SPIN=           1
 
                                                                                 !open shell input
 
  basis=cc-pvdz
  uhf
 
  basis=cc-pvtz
  uhf
  rhf
 
  basis=aug-cc-pvtz
  rhf
  uccsd(t)
  en_cc = energy
 
  gdirect
  basis=aug-cc-pvtz
  rhf
  df-rmp2
  en_mp2_tz=energy
 
  basis=aug-cc-pvqz
  rhf
  df-rmp2
  en_mp2_qz=energy
  put,molden,molpro.molden
 
  CBSen = en_cc+en_mp2_qz-en_mp2_tz
 

 Variables initialized (661), CPU time= 0.00 sec
 Commands  initialized (458), CPU time= 0.01 sec, 486 directives.
 Default parameters read. Elapsed time= 0.07 sec

 Checking input...
 Passed
1


                                         ***  PROGRAM SYSTEM MOLPRO  ***
                         Copyright, University College Cardiff Consultants Limited, 2008

                                    Version 2010.1 linked Nov 28 2013 00:29:07


 **********************************************************************************************************************************
 LABEL *                                                                                 
 Linux-2.6.34-12-desktop/tt106(x86_64) 64 bit mpp version                                DATE: 06-Sep-19          TIME: 00:29:11  
 **********************************************************************************************************************************

 SHA1:             3e0dedb5ca8b4ac28d83a6c404202848d09e924a
 **********************************************************************************************************************************

 Turning off symmetry in density fitting calculation
 To re-enable, use 'set,zsymel=auto'

 SETTING RCC91          =         1.30000000                                  
 SETTING RCC92          =         1.08520000                                  
 SETTING RCC93          =         1.09000000                                  
 SETTING RCH91          =         1.07860000                                  
 SETTING ACCC91         =       122.01770000                                  
 SETTING AHCC91         =       121.63380000                                  
 SETTING AHCC92         =       137.87270000                                  
 SETTING B91            =       179.97500000                                  
 SETTING B92            =       179.98470000                                  
 SETTING SPIN           =         1.00000000                                  

 Variable memory set to  500000000 words,  buffer space   230000 words

 SETTING BASIS          =    CC-PVDZ


 Recomputing integrals since basis changed


 Using spherical harmonics

 Library entry C      S cc-pVDZ              selected for orbital group  1
 Library entry C      P cc-pVDZ              selected for orbital group  1
 Library entry C      D cc-pVDZ              selected for orbital group  1
 Library entry H      S cc-pVDZ              selected for orbital group  2
 Library entry H      P cc-pVDZ              selected for orbital group  2

1PROGRAM * SEWARD (Integral evaluation for generally contracted gaussian basis sets)     Author: Roland Lindh, 1990

 Geometry written to block  1 of record 700

 Orientation using atomic masses  
 Molecule type: Asymmetric top
 Rotational constants:      28.9155367     32.9505233    236.1301396 GHz  (calculated with average atomic masses)

 Point group  C1  



 ATOMIC COORDINATES

 NR  ATOM    CHARGE       X              Y              Z

   1  C91     6.00   -0.000070014    0.157806443   -1.289947882
   2  C92     6.00    0.000077671   -0.043615610    1.158424789
   3  H93     1.00   -0.000088576    1.600167438    2.384587122
   4  H94     1.00   -0.000388997   -1.880040217    2.091337751
   5  H95     1.00    0.000386323   -1.080869027   -2.908645202

 Bond lengths in Bohr (Angstrom)

 1-2  2.456643971  1-5  2.038258605  2-3  2.050730798  2-4  2.059801483
     ( 1.300000000)     ( 1.078600000)     ( 1.085200000)     ( 1.090000000)

 Bond angles

  1-2-3  122.01770000   1-2-4  121.63380000   2-1-5  137.87270000   3-2-4  116.34849561

 NUCLEAR CHARGE:                   15
 NUMBER OF PRIMITIVE AOS:          75
 NUMBER OF SYMMETRY AOS:           73
 NUMBER OF CONTRACTIONS:           43   (  43A   )
 NUMBER OF CORE ORBITALS:           2   (   2A   )
 NUMBER OF VALENCE ORBITALS:       11   (  11A   )


 NUCLEAR REPULSION ENERGY   28.55812644


 Eigenvalues of metric

         1 0.371E-02 0.159E-01 0.222E-01 0.266E-01 0.345E-01 0.456E-01 0.492E-01 0.584E-01


 Contracted 2-electron integrals neglected if value below      1.0D-11
 AO integral compression algorithm  1   Integral accuracy      1.0D-11

     2.884 MB (compressed) written to integral file ( 62.3%)

     Node minimum: 0.524 MB, node maximum: 0.786 MB


 NUMBER OF SORTED TWO-ELECTRON INTEGRALS:     111864.     BUFFER LENGTH:  32768
 NUMBER OF SEGMENTS:   1  SEGMENT LENGTH:     111864      RECORD LENGTH: 524288

 Memory used in sort:       0.67 MW

 SORT1 READ      553316. AND WROTE      109153. INTEGRALS IN      1 RECORDS. CPU TIME:     0.01 SEC, REAL TIME:     0.10 SEC
 SORT2 READ      437197. AND WROTE      447931. INTEGRALS IN     12 RECORDS. CPU TIME:     0.00 SEC, REAL TIME:     0.01 SEC

 Node minimum:      111628.  Node maximum:      112338. integrals

 OPERATOR DM      FOR CENTER  0  COORDINATES:    0.000000    0.000000    0.000000


 **********************************************************************************************************************************
 DATASETS  * FILE   NREC   LENGTH (MB)   RECORD NAMES
              1      18        2.67       500      610      700      900      950      970     1000      129      960     1100   
                                          VAR    BASINP    GEOM    SYMINP    ZMAT    AOBASIS   BASIS     P2S    ABASIS      S 
                                         1400     1410     1200     1210     1080     1600     1650     1700   
                                           T        V       H0       H01     AOSYM     SMH    MOLCAS    OPER   

 PROGRAMS   *        TOTAL       INT
 CPU TIMES  *         0.19      0.08
 REAL TIME  *         1.46 SEC
 DISK USED  *        18.73 MB      
 GA USED    *         0.00 MB       (max)       0.00 MB       (current)
 **********************************************************************************************************************************

1PROGRAM * UHF-SCF       Authors: W. Meyer, H.-J. Werner


 NUMBER OF ELECTRONS:       8+    7-    SPACE SYMMETRY=1    SPIN SYMMETRY: Doublet 
 CONVERGENCE THRESHOLDS:    1.00E-05 (Density)    1.00E-07 (Energy)
 MAX. NUMBER OF ITERATIONS:       60
 INTERPOLATION TYPE:            DIIS
 INTERPOLATION STEPS:              2 (START)      1 (STEP)
 LEVEL SHIFTS:                  0.30 (ALPHA)   0.30 (BETA) 



 Orbital guess generated from atomic densities. Full valence occupancy:   13

 Molecular orbital dump at record        2200.2

 Initial alpha occupation   8
 Initial beta  occupation   7

 ITERATION    DDIFF          GRAD             ENERGY        2-EL.EN.            DIPOLE MOMENTS         DIIS
    1      0.000D+00      0.000D+00       -77.35832655    108.133497   -0.00004   -0.31656    0.16340    0
    2      0.115D-01      0.420D-02       -77.38361664    107.449863   -0.00001   -0.27166    0.09463    1
    3      0.514D-02      0.183D-02       -77.39081424    107.599843   -0.00000   -0.25560    0.04829    2
    4      0.292D-02      0.872D-03       -77.39335756    107.580727    0.00001   -0.24178    0.04759    3
    5      0.103D-02      0.431D-03       -77.39420400    107.579250    0.00001   -0.23082    0.04274    4
    6      0.397D-03      0.332D-03       -77.39476979    107.583850    0.00000   -0.22631    0.04267    5
    7      0.463D-03      0.297D-03       -77.39569871    107.582277    0.00000   -0.22251    0.04698    6
    8      0.162D-02      0.254D-03       -77.39735049    107.595237   -0.00000   -0.21750    0.05938    7
    9      0.772D-03      0.132D-03       -77.39757754    107.588651   -0.00001   -0.21709    0.06265    8
   10      0.380D-03      0.437D-04       -77.39760123    107.594771   -0.00001   -0.21630    0.06332    9
   11      0.149D-03      0.174D-04       -77.39760012    107.591952   -0.00001   -0.21649    0.06212    9
   12      0.184D-03      0.123D-04       -77.39760120    107.593939   -0.00001   -0.21600    0.06255    9
   13      0.807D-04      0.862D-05       -77.39760243    107.593215   -0.00001   -0.21616    0.06222    9
   14      0.578D-05      0.802D-06       -77.39760243    107.593273   -0.00001   -0.21613    0.06223    9
   15      0.419D-05      0.592D-06       -77.39760243    107.593245   -0.00001   -0.21612    0.06222    7
   16      0.460D-06      0.155D-06       -77.39760243    107.593243   -0.00001   -0.21612    0.06222    7
 
 Final alpha occupancy:   8
 Final beta  occupancy:   7

 !UHF STATE 1.1 Energy                -77.397602430590
 Nuclear energy                        28.55812644
 One-electron energy                 -159.75235028
 Two-electron energy                   53.79662141
 Virial quotient                       -0.99998634
 !UHF STATE 1.1 Dipole moment          -0.00000555    -0.21611922     0.06222455
 Dipole moment /Debye                  -0.00001410    -0.54928429     0.15814866

 Orbital energies for positive spin:

         1.1          2.1          3.1          4.1          5.1          6.1          7.1          8.1          9.1         10.1
    -11.258803   -11.229566    -1.050470    -0.786291    -0.634438    -0.598680    -0.408042    -0.397728     0.176620     0.210756

 Orbital energies for negative spin:

         1.1          2.1          3.1          4.1          5.1          6.1          7.1          8.1          9.1         10.1
    -11.242743   -11.223223    -1.018104    -0.736146    -0.610686    -0.569087    -0.395097     0.132207     0.198487     0.213534

 EXPECTATION VALUE OF S**2:             0.93772684

 Natural orbitals saved to record    2200.2 (Orbital set 3)

 Orbital spaces for UNO-CAS (Min. occupation: 0.020  Max. occupation: 1.980):

 Closed:        6
 Active:        3


 **********************************************************************************************************************************
 DATASETS  * FILE   NREC   LENGTH (MB)   RECORD NAMES
              1      18        2.67       500      610      700      900      950      970     1000      129      960     1100   
                                          VAR    BASINP    GEOM    SYMINP    ZMAT    AOBASIS   BASIS     P2S    ABASIS      S 
                                         1400     1410     1200     1210     1080     1600     1650     1700   
                                           T        V       H0       H01     AOSYM     SMH    MOLCAS    OPER   

              2       3        0.39       700     1000     2200   
                                         GEOM     BASIS     UHF  

 PROGRAMS   *        TOTAL       UHF       INT
 CPU TIMES  *         0.29      0.10      0.08
 REAL TIME  *         2.57 SEC
 DISK USED  *        34.21 MB      
 SF USED    *         0.01 MB      
 GA USED    *         0.00 MB       (max)       0.00 MB       (current)
 **********************************************************************************************************************************
 SETTING BASIS          =    CC-PVTZ


 Recomputing integrals since basis changed


 Using spherical harmonics

 Library entry C      S cc-pVTZ              selected for orbital group  1
 Library entry C      P cc-pVTZ              selected for orbital group  1
 Library entry C      D cc-pVTZ              selected for orbital group  1
 Library entry C      F cc-pVTZ              selected for orbital group  1
 Library entry H      S cc-pVTZ              selected for orbital group  2
 Library entry H      P cc-pVTZ              selected for orbital group  2
 Library entry H      D cc-pVTZ              selected for orbital group  2

1PROGRAM * SEWARD (Integral evaluation for generally contracted gaussian basis sets)     Author: Roland Lindh, 1990

 Geometry written to block  1 of record 700

 Orientation using atomic masses  
 Molecule type: Asymmetric top
 Rotational constants:      28.9155367     32.9505233    236.1301396 GHz  (calculated with average atomic masses)

 Point group  C1  



 ATOMIC COORDINATES

 NR  ATOM    CHARGE       X              Y              Z

   1  C91     6.00   -0.000070014    0.157806443   -1.289947882
   2  C92     6.00    0.000077671   -0.043615610    1.158424789
   3  H93     1.00   -0.000088576    1.600167438    2.384587122
   4  H94     1.00   -0.000388997   -1.880040217    2.091337751
   5  H95     1.00    0.000386323   -1.080869027   -2.908645202

 Bond lengths in Bohr (Angstrom)

 1-2  2.456643971  1-5  2.038258605  2-3  2.050730798  2-4  2.059801483
     ( 1.300000000)     ( 1.078600000)     ( 1.085200000)     ( 1.090000000)

 Bond angles

  1-2-3  122.01770000   1-2-4  121.63380000   2-1-5  137.87270000   3-2-4  116.34849561

 NUCLEAR CHARGE:                   15
 NUMBER OF PRIMITIVE AOS:         145
 NUMBER OF SYMMETRY AOS:          132
 NUMBER OF CONTRACTIONS:          102   ( 102A   )
 NUMBER OF CORE ORBITALS:           2   (   2A   )
 NUMBER OF VALENCE ORBITALS:       11   (  11A   )


 NUCLEAR REPULSION ENERGY   28.55812644


 Eigenvalues of metric

         1 0.885E-03 0.118E-02 0.149E-02 0.154E-02 0.179E-02 0.519E-02 0.629E-02 0.756E-02


 Contracted 2-electron integrals neglected if value below      1.0D-11
 AO integral compression algorithm  1   Integral accuracy      1.0D-11

     58.982 MB (compressed) written to integral file ( 45.0%)

     Node minimum: 13.894 MB, node maximum: 15.466 MB


 NUMBER OF SORTED TWO-ELECTRON INTEGRALS:    3450564.     BUFFER LENGTH:  32768
 NUMBER OF SEGMENTS:   1  SEGMENT LENGTH:    3450564      RECORD LENGTH: 524288

 Memory used in sort:       4.01 MW

 SORT1 READ    16308865. AND WROTE     3314593. INTEGRALS IN     10 RECORDS. CPU TIME:     0.25 SEC, REAL TIME:     0.35 SEC
 SORT2 READ    13265126. AND WROTE    13799631. INTEGRALS IN    224 RECORDS. CPU TIME:     0.10 SEC, REAL TIME:     0.12 SEC

 Node minimum:     3447938.  Node maximum:     3451878. integrals

 OPERATOR DM      FOR CENTER  0  COORDINATES:    0.000000    0.000000    0.000000


 **********************************************************************************************************************************
 DATASETS  * FILE   NREC   LENGTH (MB)   RECORD NAMES
              1      18        3.00       500      610      700      900      950      970     1001      129      960     1100   
                                          VAR    BASINP    GEOM    SYMINP    ZMAT    AOBASIS   BASIS     P2S    ABASIS      S 
                                         1400     1410     1200     1210     1080     1600     1650     1700   
                                           T        V       H0       H01     AOSYM     SMH    MOLCAS    OPER   

              2       4        0.41       700     1000     2200     1001   
                                         GEOM     BASIS     UHF     BASIS   

 PROGRAMS   *        TOTAL       INT       UHF       INT
 CPU TIMES  *         0.96      0.67      0.10      0.08
 REAL TIME  *         4.26 SEC
 DISK USED  *       233.46 MB      
 SF USED    *         0.01 MB      
 GA USED    *         0.00 MB       (max)       0.00 MB       (current)
 **********************************************************************************************************************************

1PROGRAM * UHF-SCF       Authors: W. Meyer, H.-J. Werner


 NUMBER OF ELECTRONS:       8+    7-    SPACE SYMMETRY=1    SPIN SYMMETRY: Doublet 
 CONVERGENCE THRESHOLDS:    1.00E-05 (Density)    1.00E-07 (Energy)
 MAX. NUMBER OF ITERATIONS:       60
 INTERPOLATION TYPE:            DIIS
 INTERPOLATION STEPS:              2 (START)      1 (STEP)
 LEVEL SHIFTS:                  0.30 (ALPHA)   0.30 (BETA) 



 Molecular orbitals read from record     2200.2  Type=UHF/ALPHA (state 1.1)
 
 Present basis size:     102
 Previous basis size:     43
 Previous occupation:      8
 Previous closed-shells:   7
 Previous core-orbitals:   2
 Present occupation:       8
 Present closed-shells:    7
 Present core-orbitals:    2
 Wavefunction symmetry:    1   Doublet 

 Orbital overlap <old|new>:  < 1.1| 1.1> = 0.999999   < 2.1| 2.1> = 0.999999   < 3.1| 3.1> = 0.999907   < 4.1| 4.1> = 0.999944
                             < 5.1| 5.1> = 0.999900   < 6.1| 6.1> = 0.999875   < 7.1| 7.1> = 0.999742   < 8.1| 8.1> = 0.999835
 Molecular orbitals read from record     2200.2  Type=UHF/BETA (state 1.1)
 
 Present basis size:     102
 Previous basis size:     43
 Previous occupation:      8
 Previous closed-shells:   7
 Previous core-orbitals:   2
 Present occupation:       8
 Present closed-shells:    7
 Present core-orbitals:    2
 Wavefunction symmetry:    1   Doublet 

 Orbital overlap <old|new>:  < 1.1| 1.1> = 0.999999   < 2.1| 2.1> = 0.999999   < 3.1| 3.1> = 0.999913   < 4.1| 4.1> = 0.999936
                             < 5.1| 5.1> = 0.999883   < 6.1| 6.1> = 0.999898   < 7.1| 7.1> = 0.999726   < 8.1| 8.1> = 0.999330

 Molecular orbital dump at record        2201.2

 Initial alpha occupation   8
 Initial beta  occupation   7

 ITERATION    DDIFF          GRAD             ENERGY        2-EL.EN.            DIPOLE MOMENTS         DIIS
    1      0.000D+00      0.000D+00       -77.41101175    107.607125   -0.00000   -0.21568    0.06210    0
    2      0.842D-02      0.195D-02       -77.41950112    107.678467   -0.00001   -0.22024    0.06638    1
    3      0.154D-02      0.283D-03       -77.41979337    107.636228   -0.00001   -0.22307    0.06862    2
    4      0.263D-03      0.365D-04       -77.41980710    107.634093   -0.00001   -0.22479    0.06891    3
    5      0.624D-04      0.124D-04       -77.41980908    107.628885   -0.00001   -0.22558    0.06979    4
    6      0.199D-04      0.555D-05       -77.41980970    107.629652   -0.00001   -0.22593    0.06981    5
    7      0.911D-05      0.374D-05       -77.41981010    107.629370   -0.00001   -0.22614    0.07003    5
    8      0.968D-05      0.266D-05       -77.41981052    107.629103   -0.00001   -0.22623    0.06997    6
    9      0.807D-05      0.158D-05       -77.41981071    107.629272   -0.00001   -0.22630    0.07001    7
   10      0.469D-05      0.777D-06       -77.41981075    107.629041   -0.00001   -0.22628    0.06993    8
   11      0.137D-05      0.245D-06       -77.41981076    107.629061   -0.00001   -0.22628    0.06991    8
   12      0.217D-06      0.644D-07       -77.41981076    107.629055   -0.00001   -0.22628    0.06990    8
 
 Final alpha occupancy:   8
 Final beta  occupancy:   7

 !UHF STATE 1.1 Energy                -77.419810755401
 Nuclear energy                        28.55812644
 One-electron energy                 -159.79246466
 Two-electron energy                   53.81452747
 Virial quotient                       -1.00025046
 !UHF STATE 1.1 Dipole moment          -0.00000668    -0.22628173     0.06990195
 Dipole moment /Debye                  -0.00001698    -0.57511312     0.17766141

 Orbital energies for positive spin:

         1.1          2.1          3.1          4.1          5.1          6.1          7.1          8.1          9.1         10.1
    -11.254958   -11.223766    -1.050937    -0.788200    -0.637273    -0.601908    -0.409734    -0.400353     0.158963     0.163829

 Orbital energies for negative spin:

         1.1          2.1          3.1          4.1          5.1          6.1          7.1          8.1          9.1         10.1
    -11.236081   -11.220661    -1.018386    -0.738308    -0.614026    -0.571792    -0.397026     0.116759     0.166255     0.177806

 EXPECTATION VALUE OF S**2:             0.93219049

 Natural orbitals saved to record    2201.2 (Orbital set 3)

 Orbital spaces for UNO-CAS (Min. occupation: 0.020  Max. occupation: 1.980):

 Closed:        6
 Active:        3


 **********************************************************************************************************************************
 DATASETS  * FILE   NREC   LENGTH (MB)   RECORD NAMES
              1      18        3.00       500      610      700      900      950      970     1001      129      960     1100   
                                          VAR    BASINP    GEOM    SYMINP    ZMAT    AOBASIS   BASIS     P2S    ABASIS      S 
                                         1400     1410     1200     1210     1080     1600     1650     1700   
                                           T        V       H0       H01     AOSYM     SMH    MOLCAS    OPER   

              2       5        0.87       700     1000     2200     1001     2201   
                                         GEOM     BASIS     UHF     BASIS     UHF  

 PROGRAMS   *        TOTAL       UHF       INT       UHF       INT
 CPU TIMES  *         1.61      0.65      0.67      0.10      0.08
 REAL TIME  *         5.68 SEC
 DISK USED  *       246.38 MB      
 SF USED    *         0.05 MB      
 GA USED    *         0.00 MB       (max)       0.00 MB       (current)
 **********************************************************************************************************************************

1PROGRAM * RHF-SCF (OPEN SHELL)       Authors: W. Meyer, H.-J. Werner


 NUMBER OF ELECTRONS:       8+    7-    SPACE SYMMETRY=1    SPIN SYMMETRY: Doublet 
 CONVERGENCE THRESHOLDS:    1.00E-05 (Density)    1.00E-07 (Energy)
 MAX. NUMBER OF ITERATIONS:       60
 INTERPOLATION TYPE:            DIIS
 INTERPOLATION STEPS:              2 (START)      1 (STEP)
 LEVEL SHIFTS:                 -0.30 (CLOSED)  0.00 (OPEN) 



 Molecular orbitals read from record     2201.2  Type=UHF/NATURAL (state 1.1)

 Molecular orbital dump at record        2100.2

 ITERATION    DDIFF          GRAD             ENERGY        2-EL.EN.            DIPOLE MOMENTS         DIIS
    1      0.000D+00      0.000D+00       -77.41166085    107.695295   -0.00000   -0.22207    0.06292    0
    2      0.000D+00      0.352D-03       -77.41200181    107.606362    0.00000   -0.23450    0.06239    1
    3      0.420D-03      0.132D-03       -77.41204881    107.617971    0.00001   -0.23582    0.06675    2
    4      0.203D-03      0.382D-04       -77.41205435    107.611734    0.00001   -0.23587    0.06501    3
    5      0.788D-04      0.141D-04       -77.41205509    107.612424    0.00001   -0.23618    0.06475    4
    6      0.327D-04      0.492D-05       -77.41205521    107.612577    0.00001   -0.23613    0.06403    5
    7      0.126D-04      0.220D-05       -77.41205523    107.612588    0.00001   -0.23617    0.06372    6
    8      0.698D-05      0.939D-06       -77.41205524    107.612596    0.00001   -0.23617    0.06363    0

 Final alpha occupancy:   8
 Final beta  occupancy:   7

 !RHF STATE 1.1 Energy                -77.412055235667
 Nuclear energy                        28.55812644
 One-electron energy                 -159.77647944
 Two-electron energy                   53.80629777
 Virial quotient                       -1.00096566
 !RHF STATE 1.1 Dipole moment           0.00000628    -0.23616561     0.06363369
 Dipole moment /Debye                   0.00001597    -0.60023380     0.16173011

 Orbital energies:

         1.1          2.1          3.1          4.1          5.1          6.1          7.1          8.1          9.1         10.1
    -11.247008   -11.233357    -1.030216    -0.766353    -0.624972    -0.581631    -0.390177    -0.416460     0.150246     0.162487


 **********************************************************************************************************************************
 DATASETS  * FILE   NREC   LENGTH (MB)   RECORD NAMES
              1      18        3.00       500      610      700      900      950      970     1001      129      960     1100   
                                          VAR    BASINP    GEOM    SYMINP    ZMAT    AOBASIS   BASIS     P2S    ABASIS      S 
                                         1400     1410     1200     1210     1080     1600     1650     1700   
                                           T        V       H0       H01     AOSYM     SMH    MOLCAS    OPER   

              2       6        1.20       700     1000     2200     1001     2201     2100   
                                         GEOM     BASIS     UHF     BASIS     UHF      RHF  

 PROGRAMS   *        TOTAL       RHF       UHF       INT       UHF       INT
 CPU TIMES  *         2.01      0.40      0.65      0.67      0.10      0.08
 REAL TIME  *         6.80 SEC
 DISK USED  *       246.38 MB      
 SF USED    *         0.05 MB      
 GA USED    *         0.00 MB       (max)       0.00 MB       (current)
 **********************************************************************************************************************************
 SETTING BASIS          =    AUG-CC-PVTZ


 Recomputing integrals since basis changed


 Using spherical harmonics

 Library entry C      S aug-cc-pVTZ          selected for orbital group  1
 Library entry C      P aug-cc-pVTZ          selected for orbital group  1
 Library entry C      D aug-cc-pVTZ          selected for orbital group  1
 Library entry C      F aug-cc-pVTZ          selected for orbital group  1
 Library entry H      S aug-cc-pVTZ          selected for orbital group  2
 Library entry H      P aug-cc-pVTZ          selected for orbital group  2
 Library entry H      D aug-cc-pVTZ          selected for orbital group  2

1PROGRAM * SEWARD (Integral evaluation for generally contracted gaussian basis sets)     Author: Roland Lindh, 1990

 Geometry written to block  1 of record 700

 Orientation using atomic masses  
 Molecule type: Asymmetric top
 Rotational constants:      28.9155367     32.9505233    236.1301396 GHz  (calculated with average atomic masses)

 Point group  C1  



 ATOMIC COORDINATES

 NR  ATOM    CHARGE       X              Y              Z

   1  C91     6.00   -0.000070014    0.157806443   -1.289947882
   2  C92     6.00    0.000077671   -0.043615610    1.158424789
   3  H93     1.00   -0.000088576    1.600167438    2.384587122
   4  H94     1.00   -0.000388997   -1.880040217    2.091337751
   5  H95     1.00    0.000386323   -1.080869027   -2.908645202

 Bond lengths in Bohr (Angstrom)

 1-2  2.456643971  1-5  2.038258605  2-3  2.050730798  2-4  2.059801483
     ( 1.300000000)     ( 1.078600000)     ( 1.085200000)     ( 1.090000000)

 Bond angles

  1-2-3  122.01770000   1-2-4  121.63380000   2-1-5  137.87270000   3-2-4  116.34849561

 NUCLEAR CHARGE:                   15
 NUMBER OF PRIMITIVE AOS:         215
 NUMBER OF SYMMETRY AOS:          191
 NUMBER OF CONTRACTIONS:          161   ( 161A   )
 NUMBER OF CORE ORBITALS:           2   (   2A   )
 NUMBER OF VALENCE ORBITALS:       11   (  11A   )


 NUCLEAR REPULSION ENERGY   28.55812644


 Eigenvalues of metric

         1 0.321E-04 0.395E-04 0.656E-04 0.982E-04 0.171E-03 0.365E-03 0.598E-03 0.803E-03


 Contracted 2-electron integrals neglected if value below      1.0D-12
 AO integral compression algorithm  1   Integral accuracy      1.0D-12

     451.936 MB (compressed) written to integral file ( 55.3%)

     Node minimum: 104.858 MB, node maximum: 120.586 MB


 NUMBER OF SORTED TWO-ELECTRON INTEGRALS:   21261720.     BUFFER LENGTH:  32768
 NUMBER OF SEGMENTS:   2  SEGMENT LENGTH:   15989512      RECORD LENGTH: 524288

 Memory used in sort:      16.55 MW

 SORT1 READ   101969038. AND WROTE    20859233. INTEGRALS IN     60 RECORDS. CPU TIME:     1.70 SEC, REAL TIME:     1.98 SEC
 SORT2 READ    83389587. AND WROTE    85040361. INTEGRALS IN   1840 RECORDS. CPU TIME:     0.56 SEC, REAL TIME:     0.72 SEC

 Node minimum:    21255200.  Node maximum:    21264981. integrals

 OPERATOR DM      FOR CENTER  0  COORDINATES:    0.000000    0.000000    0.000000


 **********************************************************************************************************************************
 DATASETS  * FILE   NREC   LENGTH (MB)   RECORD NAMES
              1      18        3.58       500      610      700      900      950      970     1002      129      960     1100   
                                          VAR    BASINP    GEOM    SYMINP    ZMAT    AOBASIS   BASIS     P2S    ABASIS      S 
                                         1400     1410     1200     1210     1080     1600     1650     1700   
                                           T        V       H0       H01     AOSYM     SMH    MOLCAS    OPER   

              2       7        1.36       700     1000     2200     1001     2201     2100     1002   
                                         GEOM     BASIS     UHF     BASIS     UHF      RHF     BASIS   

 PROGRAMS   *        TOTAL       INT       RHF       UHF       INT       UHF       INT
 CPU TIMES  *         5.57      3.56      0.40      0.65      0.67      0.10      0.08
 REAL TIME  *        11.75 SEC
 DISK USED  *         1.45 GB      
 SF USED    *         0.05 MB      
 GA USED    *         0.00 MB       (max)       0.00 MB       (current)
 **********************************************************************************************************************************

1PROGRAM * RHF-SCF (OPEN SHELL)       Authors: W. Meyer, H.-J. Werner


 NUMBER OF ELECTRONS:       8+    7-    SPACE SYMMETRY=1    SPIN SYMMETRY: Doublet 
 CONVERGENCE THRESHOLDS:    1.00E-05 (Density)    1.00E-07 (Energy)
 MAX. NUMBER OF ITERATIONS:       60
 INTERPOLATION TYPE:            DIIS
 INTERPOLATION STEPS:              2 (START)      1 (STEP)
 LEVEL SHIFTS:                 -0.30 (CLOSED)  0.00 (OPEN) 



 Molecular orbitals read from record     2100.2  Type=RHF/CANONICAL (state 1.1)
 
 Present basis size:     161
 Previous basis size:    102
 Previous occupation:      8
 Previous closed-shells:   7
 Previous core-orbitals:   2
 Present occupation:       8
 Present closed-shells:    7
 Present core-orbitals:    2
 Wavefunction symmetry:    1   Doublet 

 Orbital overlap <old|new>:  < 1.1| 1.1> = 1.000000   < 2.1| 2.1> = 1.000000   < 3.1| 3.1> = 1.000000   < 4.1| 4.1> = 1.000000
                             < 5.1| 5.1> = 1.000000   < 6.1| 6.1> = 1.000000   < 7.1| 7.1> = 1.000000   < 8.1| 8.1> = 1.000000

 Molecular orbital dump at record        2101.2

 ITERATION    DDIFF          GRAD             ENERGY        2-EL.EN.            DIPOLE MOMENTS         DIIS
    1      0.000D+00      0.000D+00       -77.41205524    107.612596    0.00001   -0.23617    0.06363    0
    2      0.000D+00      0.424D-03       -77.41276258    107.591154    0.00001   -0.23604    0.06518    1
    3      0.916D-02      0.105D-03       -77.41287582    107.575870    0.00001   -0.23642    0.06704    2
    4      0.242D-02      0.379D-04       -77.41289957    107.566900    0.00001   -0.23633    0.06804    3
    5      0.316D-03      0.115D-04       -77.41290186    107.563975    0.00001   -0.23637    0.06863    4
    6      0.121D-03      0.300D-05       -77.41290198    107.563655    0.00001   -0.23633    0.06859    5
    7      0.168D-04      0.921D-06       -77.41290199    107.563621    0.00001   -0.23638    0.06871    6
    8      0.643D-05      0.471D-06       -77.41290199    107.563609    0.00001   -0.23638    0.06871    0

 Final alpha occupancy:   8
 Final beta  occupancy:   7

 !RHF STATE 1.1 Energy                -77.412901985937
 Nuclear energy                        28.55812644
 One-electron energy                 -159.75283288
 Two-electron energy                   53.78180446
 Virial quotient                       -1.00108078
 !RHF STATE 1.1 Dipole moment           0.00000612    -0.23638020     0.06871018
 Dipole moment /Debye                   0.00001555    -0.60077918     0.17463241

 Orbital energies:

         1.1          2.1          3.1          4.1          5.1          6.1          7.1          8.1          9.1         10.1
    -11.249368   -11.235469    -1.032065    -0.767852    -0.626637    -0.583187    -0.391270    -0.417521     0.031645     0.039532


 **********************************************************************************************************************************
 DATASETS  * FILE   NREC   LENGTH (MB)   RECORD NAMES
              1      18        3.58       500      610      700      900      950      970     1002      129      960     1100   
                                          VAR    BASINP    GEOM    SYMINP    ZMAT    AOBASIS   BASIS     P2S    ABASIS      S 
                                         1400     1410     1200     1210     1080     1600     1650     1700   
                                           T        V       H0       H01     AOSYM     SMH    MOLCAS    OPER   

              2       8        2.12       700     1000     2200     1001     2201     2100     1002     2101   
                                         GEOM     BASIS     UHF     BASIS     UHF      RHF     BASIS     RHF  

 PROGRAMS   *        TOTAL       RHF       INT       RHF       UHF       INT       UHF       INT
 CPU TIMES  *         7.92      2.35      3.56      0.40      0.65      0.67      0.10      0.08
 REAL TIME  *        14.85 SEC
 DISK USED  *         1.46 GB      
 SF USED    *         0.10 MB      
 GA USED    *         0.00 MB       (max)       0.00 MB       (current)
 **********************************************************************************************************************************


1PROGRAM * CCSD (Unrestricted open-shell coupled cluster)     Authors: C. Hampel, H.-J. Werner, 1991, M. Deegan, P.J. Knowles, 1992


 Convergence thresholds:  THRVAR = 1.00D-08  THRDEN = 1.00D-06

 CCSD(T)     terms to be evaluated (factor= 1.000)


 Number of core orbitals:           2 (   2 )
 Number of closed-shell orbitals:   5 (   5 )
 Number of active  orbitals:        1 (   1 )
 Number of external orbitals:     153 ( 153 )

 Memory could be reduced to 48.28 Mwords without degradation in triples

 Number of N-1 electron functions:              11
 Number of N-2 electron functions:              55
 Number of singly external CSFs:              1694
 Number of doubly external CSFs:           1006005
 Total number of CSFs:                     1007699

 Molecular orbitals read from record     2101.2  Type=RHF/CANONICAL (state 1.1)

 Integral transformation finished. Total CPU:   2.95 sec, npass=  1  Memory used:  16.17 MW

 Starting RMP2 calculation

 ITER.      SQ.NORM     CORR.ENERGY   TOTAL ENERGY   ENERGY CHANGE        DEN1      VAR(S)    VAR(P)  DIIS     TIME
   1      1.10341122    -0.30353251   -77.71643450    -0.30353251    -0.00142903  0.24D-04  0.62D-03  1  1     3.32
   2      1.10500211    -0.30509334   -77.71799533    -0.00156083    -0.00000383  0.55D-06  0.18D-05  2  2     3.46
   3      1.10506538    -0.30512619   -77.71802818    -0.00003285    -0.00000003  0.13D-07  0.76D-08  3  3     3.61
   4      1.10506703    -0.30512649   -77.71802847    -0.00000030    -0.00000000  0.23D-09  0.77D-10  4  4     3.78

 Norm of t1 vector:      0.04021651      S-energy:    -0.00218982      T1 diagnostic:  0.00083927
 Norm of t2 vector:      0.32163592      P-energy:    -0.30293667
                                         Alpha-Beta:  -0.23670406
                                         Alpha-Alpha: -0.03881044
                                         Beta-Beta:   -0.02742216

 Spin contamination <S**2-Sz**2-Sz>     0.00381216
  Reference energy                    -77.412901985938
  RHF-RMP2 correlation energy          -0.305126488054
 !RHF-RMP2 energy                     -77.718028473992

 Starting UCCSD calculation

 ITER.      SQ.NORM     CORR.ENERGY   TOTAL ENERGY   ENERGY CHANGE        DEN1      VAR(S)    VAR(P)  DIIS     TIME
   1      1.11530425    -0.31532454   -77.72822652    -0.31532454    -0.01029116  0.17D-02  0.28D-02  1  1     7.02
   2      1.12988659    -0.32631788   -77.73921987    -0.01099334    -0.00100583  0.17D-03  0.38D-03  2  2    10.22
   3      1.13632317    -0.32857040   -77.74147238    -0.00225252    -0.00020672  0.97D-04  0.63D-04  3  3    13.44
   4      1.14034471    -0.32955390   -77.74245589    -0.00098351    -0.00004183  0.17D-04  0.15D-04  4  4    16.69
   5      1.14248758    -0.32989138   -77.74279337    -0.00033748    -0.00000896  0.39D-05  0.33D-05  5  5    19.91
   6      1.14338661    -0.32998301   -77.74288499    -0.00009162    -0.00000172  0.42D-06  0.85D-06  6  6    23.17
   7      1.14361674    -0.32999400   -77.74289598    -0.00001099    -0.00000031  0.64D-07  0.15D-06  6  2    26.42
   8      1.14369228    -0.33000264   -77.74290462    -0.00000864    -0.00000004  0.12D-07  0.19D-07  6  1    29.68
   9      1.14369673    -0.33000178   -77.74290376     0.00000086    -0.00000001  0.38D-08  0.36D-08  6  4    32.93

 Norm of t1 vector:      0.10381374      S-energy:    -0.00289006      T1 diagnostic:  0.01653420
                                                                       D1 diagnostic:  0.03714015
 Norm of t2 vector:      0.36458118      P-energy:    -0.32711171
                                         Alpha-Beta:  -0.26485762
                                         Alpha-Alpha: -0.03677640
                                         Beta-Beta:   -0.02547769

 Doubles amplitudes (print threshold =  0.500E-01):

         I         J         SYM. A    SYM. B    A         B      T(IJ, AB) [Alpha-Beta]

         5         5         1         1        12        12     -0.07866208

 Spin contamination <S**2-Sz**2-Sz>     0.00718807

 Memory could be reduced to 50.40 Mwords without degradation in triples
 

 RESULTS
 =======

  Reference energy                    -77.412901985938
  UCCSD singles energy                 -0.002890064712
  UCCSD pair energy                    -0.327111710538
  UCCSD correlation energy             -0.330001775250
  Triples (T) contribution             -0.014414440149
  Total correlation energy             -0.344416215399
 
  RHF-UCCSD energy                    -77.742903761188
  RHF-UCCSD[T] energy                 -77.757783365450
  RHF-UCCSD-T energy                  -77.757154404407
 !RHF-UCCSD(T) energy                 -77.757318201337

 Program statistics:

 Available memory in ccsd:               499999552
 Min. memory needed in ccsd:               3410892
 Max. memory used in ccsd:                 4561594
 Max. memory used in cckext:               3332057 ( 9 integral passes)
 Max. memory used in cckint:              16168483 ( 1 integral passes)



 **********************************************************************************************************************************
 DATASETS  * FILE   NREC   LENGTH (MB)   RECORD NAMES
              1      18        3.58       500      610      700      900      950      970     1002      129      960     1100   
                                          VAR    BASINP    GEOM    SYMINP    ZMAT    AOBASIS   BASIS     P2S    ABASIS      S 
                                         1400     1410     1200     1210     1080     1600     1650     1700   
                                           T        V       H0       H01     AOSYM     SMH    MOLCAS    OPER   

              2       8        2.12       700     1000     2200     1001     2201     2100     1002     2101   
                                         GEOM     BASIS     UHF     BASIS     UHF      RHF     BASIS     RHF  

 PROGRAMS   *        TOTAL  UCCSD(T)       RHF       INT       RHF       UHF       INT       UHF       INT
 CPU TIMES  *        71.98     64.05      2.35      3.56      0.40      0.65      0.67      0.10      0.08
 REAL TIME  *        83.63 SEC
 DISK USED  *         1.95 GB      
 SF USED    *       643.31 MB      
 GA USED    *         0.00 MB       (max)       0.00 MB       (current)
 **********************************************************************************************************************************
 SETTING EN_CC          =       -77.75731820  AU                              
 SETTING BASIS          =    AUG-CC-PVTZ

1PROGRAM * RHF-SCF (OPEN SHELL)       Authors: W. Meyer, H.-J. Werner


 NUMBER OF ELECTRONS:       8+    7-    SPACE SYMMETRY=1    SPIN SYMMETRY: Doublet 
 CONVERGENCE THRESHOLDS:    1.00E-05 (Density)    1.00E-07 (Energy)
 INTEGRAL THRESHOLDS:       1.00E-11 (Initial)    1.00E-11 (Final)
 MAX. NUMBER OF ITERATIONS:       60
 INTERPOLATION TYPE:            DIIS
 INTERPOLATION STEPS:              2 (START)      1 (STEP)
 LEVEL SHIFTS:                 -0.30 (CLOSED)  0.00 (OPEN) 



 Molecular orbitals read from record     2101.2  Type=RHF/CANONICAL (state 1.1)

 Molecular orbital dump at record        2102.2

 Direct Fock-matrix evaluation.        Author: H.-J. Werner (1996)

 Integral Threshold:                  0.1D-10

 ITERATION   DDIFF            GRAD            ENERGY        2-EL.EN.            DIPOLE MOMENTS         DIIS   CPU(IT)  CPU(TOT)
    1      0.000D+00      0.000D+00       -77.41290199    107.563609    0.00001   -0.23638    0.06871    0      2.4      2.4   diag  
    2      0.000D+00      0.779D-05       -77.41290199    107.563615    0.00001   -0.23638    0.06873    0      2.0      4.3   orth  

 Final alpha occupancy:   8
 Final beta  occupancy:   7

 !RHF STATE 1.1 Energy                -77.412901986066
 Nuclear energy                        28.55812644
 One-electron energy                 -159.75283568
 Two-electron energy                   53.78180726
 Virial quotient                       -1.00108078
 !RHF STATE 1.1 Dipole moment           0.00000612    -0.23638493     0.06872785
 Dipole moment /Debye                   0.00001556    -0.60079122     0.17467733

 Orbital energies:

         1.1          2.1          3.1          4.1          5.1          6.1          7.1          8.1          9.1         10.1
    -11.249375   -11.235465    -1.032065    -0.767852    -0.626637    -0.583186    -0.391269    -0.417525     0.031645     0.039532


 **********************************************************************************************************************************
 DATASETS  * FILE   NREC   LENGTH (MB)   RECORD NAMES
              1      18        3.58       500      610      700      900      950      970     1002      129      960     1100   
                                          VAR    BASINP    GEOM    SYMINP    ZMAT    AOBASIS   BASIS     P2S    ABASIS      S 
                                         1400     1410     1200     1210     1080     1600     1650     1700   
                                           T        V       H0       H01     AOSYM     SMH    MOLCAS    OPER   

              2       9        3.20       700     1000     2200     1001     2201     2100     1002     2101     2102   
                                         GEOM     BASIS     UHF     BASIS     UHF      RHF     BASIS     RHF      RHF  

 PROGRAMS   *        TOTAL       RHF  UCCSD(T)       RHF       INT       RHF       UHF       INT       UHF       INT
 CPU TIMES  *        76.34      4.36     64.05      2.35      3.56      0.40      0.65      0.67      0.10      0.08
 REAL TIME  *        89.35 SEC
 DISK USED  *         1.95 GB      
 SF USED    *       643.31 MB      
 GA USED    *         0.00 MB       (max)       0.00 MB       (current)
 **********************************************************************************************************************************


1PROGRAM * RMP2 (Restricted open-shell)     Authors: U. Schumann, H.-J. Werner, 2001

 Basis set AUG-CC-PVTZ/MP2FIT generated. Number of basis functions:   350 

 Convergence thresholds:  THRVAR = 1.00D-08  THRDEN = 1.00D-06

 Number of core orbitals:           2 (   2 )
 Number of closed-shell orbitals:   5 (   5 )
 Number of active  orbitals:        1 (   1 )
 Number of external orbitals:     153 ( 153 )

 Number of N-1 electron functions:              11
 Number of N-2 electron functions:              55
 Number of singly external CSFs:              1694
 Number of doubly external CSFs:           1006005
 Total number of CSFs:                     1007699

 Molecular orbitals read from record     2102.2  Type=RHF/CANONICAL (state 1.1)
 
 Fock operators(AO) taken from dump record.
 
 CPU time for singles                             0.01 sec
 
 AO(A)-basis ORBITAL           loaded. Number of functions:     161
 DF-basis AUG-CC-PVTZ/MP2FIT   loaded. Number of functions:     350

 Screening thresholds:   THRAO=  1.00D-10  THRMO=  1.00D-09  THRPROD=  1.00D-09
                         THRSW=  1.00D-05  THROV=  1.00D-12  THRF12=   1.00D-08

 Using semi-canonical formulas. This will break singlet/triplet splittings.
 
                                      TOTAL          ALPHA          BETA    
  Singles Contributions MO        -0.002189885   -0.001108200   -0.001081685
 
 
 DF-RMP2 doubles energies:
 - - - - - - - - - - - - -
  Approx.                             TOTAL           A-B            A-A            B-B    
  RMP2                            -0.302906488   -0.236643619   -0.038828101   -0.027434769
 
 
  Reference energy                    -77.412901986066
  DF-RMP2 singles (MO) energy          -0.002189885325
  DF-RMP2 pair energy                  -0.302906488278
  DF-RMP2 correlation energy           -0.305096373603
 !DF-RMP2 energy                      -77.717998359669


 **********************************************************************************************************************************
 DATASETS  * FILE   NREC   LENGTH (MB)   RECORD NAMES
              1      19        3.59       500      610      700      900      950      970     1002      129      960     1100   
                                          VAR    BASINP    GEOM    SYMINP    ZMAT    AOBASIS   BASIS     P2S    ABASIS      S 
                                         1400     1410     1200     1210     1080     1600     1650     1700      960(1)
                                           T        V       H0       H01     AOSYM     SMH    MOLCAS    OPER    ABASIS    

              2       9        3.20       700     1000     2200     1001     2201     2100     1002     2101     2102   
                                         GEOM     BASIS     UHF     BASIS     UHF      RHF     BASIS     RHF      RHF  

 PROGRAMS   *        TOTAL      RMP2       RHF  UCCSD(T)       RHF       INT       RHF       UHF       INT       UHF       INT
 CPU TIMES  *        76.64      0.31      4.36     64.05      2.35      3.56      0.40      0.65      0.67      0.10      0.08
 REAL TIME  *        90.39 SEC
 DISK USED  *         1.95 GB      
 SF USED    *       643.31 MB      
 GA USED    *         2.40 MB       (max)       0.00 MB       (current)
 **********************************************************************************************************************************
 SETTING EN_MP2_TZ      =       -77.71799836  AU                              
 SETTING BASIS          =    AUG-CC-PVQZ


 Recomputing integrals since basis changed


 Using spherical harmonics

 Library entry C      S aug-cc-pVQZ          selected for orbital group  1
 Library entry C      P aug-cc-pVQZ          selected for orbital group  1
 Library entry C      D aug-cc-pVQZ          selected for orbital group  1
 Library entry C      F aug-cc-pVQZ          selected for orbital group  1
 Library entry C      G aug-cc-pVQZ          selected for orbital group  1
 Library entry H      S aug-cc-pVQZ          selected for orbital group  2
 Library entry H      P aug-cc-pVQZ          selected for orbital group  2
 Library entry H      D aug-cc-pVQZ          selected for orbital group  2
 Library entry H      F aug-cc-pVQZ          selected for orbital group  2

1PROGRAM * SEWARD (Integral evaluation for generally contracted gaussian basis sets)     Author: Roland Lindh, 1990

 Geometry written to block  1 of record 700

 Orientation using atomic masses  
 Molecule type: Asymmetric top
 Rotational constants:      28.9155367     32.9505233    236.1301396 GHz  (calculated with average atomic masses)

 Point group  C1  



 ATOMIC COORDINATES

 NR  ATOM    CHARGE       X              Y              Z

   1  C91     6.00   -0.000070014    0.157806443   -1.289947882
   2  C92     6.00    0.000077671   -0.043615610    1.158424789
   3  H93     1.00   -0.000088576    1.600167438    2.384587122
   4  H94     1.00   -0.000388997   -1.880040217    2.091337751
   5  H95     1.00    0.000386323   -1.080869027   -2.908645202

 Bond lengths in Bohr (Angstrom)

 1-2  2.456643971  1-5  2.038258605  2-3  2.050730798  2-4  2.059801483
     ( 1.300000000)     ( 1.078600000)     ( 1.085200000)     ( 1.090000000)

 Bond angles

  1-2-3  122.01770000   1-2-4  121.63380000   2-1-5  137.87270000   3-2-4  116.34849561

 NUCLEAR CHARGE:                   15
 NUMBER OF PRIMITIVE AOS:         407
 NUMBER OF SYMMETRY AOS:          330
 NUMBER OF CONTRACTIONS:          298   ( 298A   )
 NUMBER OF CORE ORBITALS:           2   (   2A   )
 NUMBER OF VALENCE ORBITALS:       11   (  11A   )


 NUCLEAR REPULSION ENERGY   28.55812644


 Eigenvalues of metric

         1 0.820E-05 0.111E-04 0.195E-04 0.234E-04 0.387E-04 0.467E-04 0.922E-04 0.106E-03


 OPERATOR DM      FOR CENTER  0  COORDINATES:    0.000000    0.000000    0.000000


 **********************************************************************************************************************************
 DATASETS  * FILE   NREC   LENGTH (MB)   RECORD NAMES
              1      18        5.90       500      610      700      900      950      970     1003      129      960     1100   
                                          VAR    BASINP    GEOM    SYMINP    ZMAT    AOBASIS   BASIS     P2S    ABASIS      S 
                                         1400     1410     1200     1210     1080     1600     1650     1700   
                                           T        V       H0       H01     AOSYM     SMH    MOLCAS    OPER   

              2      10        3.57       700     1000     2200     1001     2201     2100     1002     2101     2102     1003   
                                         GEOM     BASIS     UHF     BASIS     UHF      RHF     BASIS     RHF      RHF     BASIS   

 PROGRAMS   *        TOTAL       INT      RMP2       RHF  UCCSD(T)       RHF       INT       RHF       UHF       INT       UHF
 CPU TIMES  *        76.76      0.12      0.31      4.36     64.05      2.35      3.56      0.40      0.65      0.67      0.10
 REAL TIME  *        91.31 SEC
 DISK USED  *         1.95 GB      
 SF USED    *       643.31 MB      
 GA USED    *         2.40 MB       (max)       0.00 MB       (current)
 **********************************************************************************************************************************

1PROGRAM * RHF-SCF (OPEN SHELL)       Authors: W. Meyer, H.-J. Werner


 NUMBER OF ELECTRONS:       8+    7-    SPACE SYMMETRY=1    SPIN SYMMETRY: Doublet 
 CONVERGENCE THRESHOLDS:    1.00E-05 (Density)    1.00E-07 (Energy)
 INTEGRAL THRESHOLDS:       1.00E-11 (Initial)    1.00E-11 (Final)
 MAX. NUMBER OF ITERATIONS:       60
 INTERPOLATION TYPE:            DIIS
 INTERPOLATION STEPS:              2 (START)      1 (STEP)
 LEVEL SHIFTS:                 -0.30 (CLOSED)  0.00 (OPEN) 



 Molecular orbitals read from record     2102.2  Type=RHF/CANONICAL (state 1.1)
 
 Present basis size:     298
 Previous basis size:    161
 Previous occupation:      8
 Previous closed-shells:   7
 Previous core-orbitals:   2
 Present occupation:       8
 Present closed-shells:    7
 Present core-orbitals:    2
 Wavefunction symmetry:    1   Doublet 

 Orbital overlap <old|new>:  < 1.1| 1.1> = 0.999999   < 2.1| 2.1> = 0.999999   < 3.1| 3.1> = 0.999994   < 4.1| 4.1> = 0.999994
                             < 5.1| 5.1> = 0.999989   < 6.1| 6.1> = 0.999992   < 7.1| 7.1> = 0.999982   < 8.1| 8.1> = 0.999986

 Molecular orbital dump at record        2103.2

 Direct Fock-matrix evaluation.        Author: H.-J. Werner (1996)

 Integral Threshold:                  0.1D-10

 ITERATION   DDIFF            GRAD            ENERGY        2-EL.EN.            DIPOLE MOMENTS         DIIS   CPU(IT)  CPU(TOT)
    1      0.000D+00      0.000D+00       -77.41666122    107.562998    0.00001   -0.23635    0.06874    0     18.1     18.3   diag  
    2      0.000D+00      0.530D-03       -77.41738115    107.585570    0.00001   -0.23625    0.06872    1     17.2     35.5   diag  
    3      0.357D-02      0.443D-04       -77.41739180    107.579887    0.00001   -0.23614    0.06854    2     17.2     52.7   diag  
    4      0.849D-03      0.439D-05       -77.41739208    107.581307    0.00001   -0.23614    0.06861    3     17.2     69.8   diag  
    5      0.215D-03      0.842D-06       -77.41739210    107.580992    0.00001   -0.23612    0.06857    4     17.2     87.0   diag  
    6      0.418D-04      0.247D-06       -77.41739210    107.581132    0.00001   -0.23612    0.06858    5     17.2    104.2   diag  
    7      0.103D-04      0.771D-07       -77.41739210    107.581131    0.00001   -0.23612    0.06857    5     17.2    121.4   diag  
    8      0.117D-05      0.605D-07       -77.41739210    107.581135    0.00001   -0.23612    0.06858    0     17.1    138.5   orth  

 Final alpha occupancy:   8
 Final beta  occupancy:   7

 !RHF STATE 1.1 Energy                -77.417392098357
 Nuclear energy                        28.55812644
 One-electron energy                 -159.76608610
 Two-electron energy                   53.79056756
 Virial quotient                       -1.00083742
 !RHF STATE 1.1 Dipole moment           0.00000623    -0.23611600     0.06857605
 Dipole moment /Debye                   0.00001584    -0.60010772     0.17429153

 Orbital energies:

         1.1          2.1          3.1          4.1          5.1          6.1          7.1          8.1          9.1         10.1
    -11.248363   -11.234340    -1.031775    -0.767788    -0.626690    -0.583270    -0.391382    -0.417734     0.028409     0.035405


 **********************************************************************************************************************************
 DATASETS  * FILE   NREC   LENGTH (MB)   RECORD NAMES
              1      18        5.90       500      610      700      900      950      970     1003      129      960     1100   
                                          VAR    BASINP    GEOM    SYMINP    ZMAT    AOBASIS   BASIS     P2S    ABASIS      S 
                                         1400     1410     1200     1210     1080     1600     1650     1700   
                                           T        V       H0       H01     AOSYM     SMH    MOLCAS    OPER   

              2      11        6.10       700     1000     2200     1001     2201     2100     1002     2101     2102     1003   
                                         GEOM     BASIS     UHF     BASIS     UHF      RHF     BASIS     RHF      RHF     BASIS   
                                         2103   
                                          RHF  

 PROGRAMS   *        TOTAL       RHF       INT      RMP2       RHF  UCCSD(T)       RHF       INT       RHF       UHF       INT
 CPU TIMES  *       215.28    138.52      0.12      0.31      4.36     64.05      2.35      3.56      0.40      0.65      0.67
 REAL TIME  *       230.95 SEC
 DISK USED  *         1.95 GB      
 SF USED    *       643.31 MB      
 GA USED    *         2.40 MB       (max)       0.00 MB       (current)
 **********************************************************************************************************************************


1PROGRAM * RMP2 (Restricted open-shell)     Authors: U. Schumann, H.-J. Werner, 2001

 Basis set AUG-CC-PVQZ/MP2FIT generated. Number of basis functions:   576 

 Convergence thresholds:  THRVAR = 1.00D-08  THRDEN = 1.00D-06

 Number of core orbitals:           2 (   2 )
 Number of closed-shell orbitals:   5 (   5 )
 Number of active  orbitals:        1 (   1 )
 Number of external orbitals:     290 ( 290 )

 Number of N-1 electron functions:              11
 Number of N-2 electron functions:              55
 Number of singly external CSFs:              3201
 Number of doubly external CSFs:           3604035
 Total number of CSFs:                     3607236

 Molecular orbitals read from record     2103.2  Type=RHF/CANONICAL (state 1.1)
 
 Fock operators(AO) taken from dump record.
 
 CPU time for singles                             0.09 sec
 
 AO(A)-basis ORBITAL           loaded. Number of functions:     298
 DF-basis AUG-CC-PVQZ/MP2FIT   loaded. Number of functions:     576

 Screening thresholds:   THRAO=  1.00D-10  THRMO=  1.00D-09  THRPROD=  1.00D-09
                         THRSW=  1.00D-05  THROV=  1.00D-12  THRF12=   1.00D-08

 Using semi-canonical formulas. This will break singlet/triplet splittings.
 
                                      TOTAL          ALPHA          BETA    
  Singles Contributions MO        -0.002203266   -0.001115196   -0.001088070
 
 
 DF-RMP2 doubles energies:
 - - - - - - - - - - - - -
  Approx.                             TOTAL           A-B            A-A            B-B    
  RMP2                            -0.320052492   -0.251901362   -0.039987382   -0.028163748
 
 
  Reference energy                    -77.417392098356
  DF-RMP2 singles (MO) energy          -0.002203265971
  DF-RMP2 pair energy                  -0.320052491724
  DF-RMP2 correlation energy           -0.322255757694
 !DF-RMP2 energy                      -77.739647856051


 **********************************************************************************************************************************
 DATASETS  * FILE   NREC   LENGTH (MB)   RECORD NAMES
              1      19        5.91       500      610      700      900      950      970     1003      129      960     1100   
                                          VAR    BASINP    GEOM    SYMINP    ZMAT    AOBASIS   BASIS     P2S    ABASIS      S 
                                         1400     1410     1200     1210     1080     1600     1650     1700      960(1)
                                           T        V       H0       H01     AOSYM     SMH    MOLCAS    OPER    ABASIS    

              2      11        6.10       700     1000     2200     1001     2201     2100     1002     2101     2102     1003   
                                         GEOM     BASIS     UHF     BASIS     UHF      RHF     BASIS     RHF      RHF     BASIS   
                                         2103   
                                          RHF  

 PROGRAMS   *        TOTAL      RMP2       RHF       INT      RMP2       RHF  UCCSD(T)       RHF       INT       RHF       UHF
 CPU TIMES  *       216.64      1.36    138.52      0.12      0.31      4.36     64.05      2.35      3.56      0.40      0.65
 REAL TIME  *       233.18 SEC
 DISK USED  *         1.95 GB      
 SF USED    *       643.31 MB      
 GA USED    *         2.40 MB       (max)       0.00 MB       (current)
 **********************************************************************************************************************************
 SETTING EN_MP2_QZ      =       -77.73964786  AU                              

 Dump information in style MOLDEN to molpro.molden                                                                   

 Molecular orbitals read from record     2103.2  Type=RHF/CANONICAL (state 1.1)
 Occupation numbers read from record     2103.2  Type=RHF/RHF (state 1.1)
 Orbital energies read from record       2103.2  Type=RHF/CANONICAL (state 1.1)
 Redundancy group numbers read from rec  2103.2  Type=RHF/RHF (state 1.1)
 
 DUMP ORBITAL  1.1 AS ORBITAL    1  occ=    2.0000  eig=  -11.2484  GROUP=   2
 DUMP ORBITAL  2.1 AS ORBITAL    2  occ=    2.0000  eig=  -11.2343  GROUP=   2
 DUMP ORBITAL  3.1 AS ORBITAL    3  occ=    2.0000  eig=   -1.0318  GROUP=   2
 DUMP ORBITAL  4.1 AS ORBITAL    4  occ=    2.0000  eig=   -0.7678  GROUP=   2
 DUMP ORBITAL  5.1 AS ORBITAL    5  occ=    2.0000  eig=   -0.6267  GROUP=   2
 DUMP ORBITAL  6.1 AS ORBITAL    6  occ=    2.0000  eig=   -0.5833  GROUP=   2
 DUMP ORBITAL  7.1 AS ORBITAL    7  occ=    2.0000  eig=   -0.3914  GROUP=   2
 DUMP ORBITAL  8.1 AS ORBITAL    8  occ=    1.0000  eig=   -0.4177  GROUP=   1

 Total charge:      15.000000

 **********************************************************************************************************************************
 SETTING CBSEN          =       -77.77896770  AU                              

        DF-RMP2         RHF-SCF         DF-RMP2         RHF-SCF         UCCSD(T)        RHF-SCF         RHF-SCF         UHF-SCF 
    -77.73964786    -77.41739210    -77.71799836    -77.41290199    -77.75731820    -77.41290199    -77.41205524    -77.41981076
 **********************************************************************************************************************************
 Variable memory released
