[Molden Format]
[Molpro variables]
_NUMVAR=  691.0000000000000    
_EV2006= 0.3674930886769165E-01
_EV= 0.3674932534394180E-01
_KJOULE= 0.3808798324128737E-03
_KJOULE/MOL= 0.3808798324128737E-03
_CM= 0.4556335267302901E-05
_CM-1= 0.4556335267302901E-05
_KCAL= 0.1593601117815568E-02
_KCAL/MOL= 0.1593601117815568E-02
_KELVIN2006= 0.3166828861084835E-05
_KELVIN= 0.3166814820820034E-05
_HERTZ2006= 0.1519829850815779E-15
_HERTZ= 0.1519829846011223E-15
_HZ2006= 0.1519829850815779E-15
_HZ= 0.1519829846011223E-15
_TOA2006= 0.5291772490000000    
_TOA= 0.5291772090000000    
_TOANG2006= 0.5291772490000000    
_TOANG= 0.5291772090000000    
_TORAD= 0.1745329251994330E-01
_TOCM=  219474.6306700000    
_TODEBYE=  2.541580000000000    
_TOEV2006=  27.21139610000000    
_TOEV=  27.21138390000000    
_TOHERTZ2006=  6579683899900000.    
_TOHERTZ=  6579683920700000.    
_TOHZ2006=  6579683899900000.    
_TOHZ=  6579683920700000.    
_TOK2006=  315773.3000000000    
_TOK=  315774.7000000000    
_TOKCAL=  627.5096000000000    
_TOKELVIN2006=  315773.3000000000    
_TOKELVIN=  315774.7000000000    
_TOKJ=  2625.500000000000    
_TOKJOULE=  2625.500000000000    
_ANG2006=  1.889725988578923    
_ANG=  1.889726131421507    
_ANGSTROM2006=  1.889725988578923    
_ANGSTROM=  1.889726131421507    
_IGNORE_UNDEF=  2.000000000000000    
_STRICTCHECK=  0.000000000000000    
_SEW_ONEEL=  0.000000000000000    
_CPPDONE=FALSE
_DKROLL_DONE=  0.000000000000000    
_FOCKDONE=  0.000000000000000    
_GRADONE=FALSE
_HESSDONE=FALSE
_INTDONE=TRUE
_SCFDONE=FALSE
_MODUL_CUDA=FALSE
_MODUL_SLATER=FALSE
_MODUL_MRCC=FALSE
_MRCC_EXEC=
_FITC_AO_SAVED=FALSE
_FITC_MO_SAVED=FALSE
_SHARED_FS=TRUE
_LSTYP=SEWARD
_INTYP=INTS
_GEOMTYP=ZMAT
_GRADTYP=ALASKA
_DIRECT=FALSE
_SYNCM=  0.000000000000000    
_BASIS=CC-PVDZ
_ZORIENT=  1.000000000000000    
_NELEC=  16.00000000000000    
_SPIN=  0.000000000000000    
!SPIN=  0.000000000000000    
_OPTCONV= 0.1922966597400518E-02
_QSDSTEP=  0.000000000000000    
_QSDIRC=  0.000000000000000    
_PROGRAM=OPTG
_CPUSTEP=  0.000000000000000    
_SYSSTEP=  0.000000000000000    
_WALLSTEP= 0.3300000000000000    
!DFMP2=  0.000000000000000    
!DFSCF=  0.000000000000000    
!SCSGRD=  0.000000000000000    
_BASINP=  610.0000000000000    
_CPUTOT=  20.09000000000000    
_DFTEXFAC=  1.000000000000000    
_DMX=-0.3980882155193499E-01
_DMY= 0.1965518217527573E-03
_DMZ= 0.2477966285373228    
_EMP2= -78.14419350753154    
_ENERGR= -77.91921836546351    
_ENERGU= -78.19147663650696    
_ENERGY= -78.14419350753154    
_ENUC=  28.78452007035148    
!RS2GRSTATE=  1.000000000000000    
!RS2GRSYM=  1.000000000000000    
_GRADENERG= -78.14419325280726    
_GRADEXFAC=  9999.000000000000    
_GRADMETHOD=TRUE
_GRADRECORD=  5200.100000000000    
_VIRIAL=-0.6211073059314658E-03
!GRID_FREEZE= -1.000000000000000    
_ITERATIONS=  0.000000000000000    
_LASTNELEC=  4.000000000000000    
_LASTSPIN=  0.000000000000000    
_LASTSYM=  1.000000000000000    
_MPP_PROG=  1.000000000000000    
_MSENERGY= -78.14419350753154    
_NPROC_MPP=  4.000000000000000    
_NPROC_SMP=  1.000000000000000    
_NUMSTEP=  0.000000000000000    
_OPTCONVMX= 0.1434457791726391E-02
_OPTCONVRMS= 0.1748151452182289E-03
_OPTGRAD= 0.2977038544120646E-03
_OPTGRADMX= 0.2487492931337620E-03
_OPTGRADRMS= 0.2706398676473315E-04
_OPTSTEP=  3.000000000000000    
_ORBITAL=  2143.200000000000    
_PI=  3.141592653589793    
!MCACT=  4.000000000000000    
!MCCLOSED=  6.000000000000000    
!MCFREEZE=  0.000000000000000    
!MCMS2=  0.000000000000000    
!MCNEL=  4.000000000000000    
!MCNSTSYM=  1.000000000000000    
!MCSTATE=  1.000000000000000    
!MCSYM=  1.000000000000000    
!MCWEIGHT=  1.000000000000000    
_SEIG_MIN= 0.4140456377023825E-02
_SEWPROP=TRUE
_STATUS=  1.000000000000000    
_SYSTOT=  1.800000000000000    
_VERSION=  2010001.000000000    
_WALLTOT=  74.16000000000000    
_DATE=05-Sep-19
_LASTORB=MCSCF
_MACHINE=Linux-2.6.34-12-desktop/tt105(x86_64) 64 bit mpp version
_OUTPUT=/home/carlo/qm/combustion/barrierless/c2h4_c2h3_h/dist_10.0/molpro.xml
_PGROUP=C1
_TIME=22:15:53
_LIBMOL=/programs/molpro2010p/bin/../lib/
!SURFREC=  0.000000000000000    
!POLYREC=  0.000000000000000    
!DIPREC=  0.000000000000000    
!VSCFREC=  0.000000000000000    
!VCIREC=  0.000000000000000    
!PVCIREC=  0.000000000000000    
!VMP2REC=  0.000000000000000    
!VMCSCFREC=  0.000000000000000    
!GAREC=  0.000000000000000    
!SCFORB=  21002.00000000000    
!MCORB=  21432.00000000000    
!CIOCC=  10.00000000000000    
!CICORE=  2.000000000000000    
!CICLOS=  6.000000000000000    
!CIISTSYM=  1.000000000000000    
!CIISTMS2=  0.000000000000000    
!CIISTNEL=  12.00000000000000    
!NEWMOL=  0.000000000000000    
!NEWSYM=  0.000000000000000    
_SLFILES=slscratch
_NGSSTO=  9.000000000000000    
_SIN=SIN
_COS=COS
_TAN=TAN
_ACOS=ACOS
_ASIN=ASIN
_ATAN=ATAN
_COSH=COSH
_SINH=SINH
_TANH=TANH
_ABS=ABS
_MOD=MOD
_ERF=ERF
_REFC=REFC
_ERFC=ERFC
_HYPOT=HYPOT
_J0=J0
_J1=J1
_JN=JN
_GAMMA=GAMMA
_LGAMMA=LGAMMA
_Y0=Y0
_Y1=Y1
_YN=YN
_EXP=EXP
_LOG=LOG
_LOG10=LOG10
_SQRT=SQRT
_INT=INT
_NINT=NINT
_MAX=MAX
_MIN=MIN
_COSMO=  0.000000000000000    
_COSMOIT=  0.000000000000000    
_COSMOES=  0.000000000000000    
_COSMOEDS=  0.000000000000000    
_COSMOEC=  0.000000000000000    
_COSMOEDCORR=  0.000000000000000    
_FEPSI=  1.000000000000000    
_SL_IsMM=  0.000000000000000    
_SL_NSYM=  0.000000000000000    
_SL_System_BitSw=  0.000000000000000    
_SL_Unique_atoms=  0.000000000000000    
_SL_GRAD=  0.000000000000000    
_SL_MAXUPD_Hess=  5.000000000000000    
_SL_N_PRINT_COD=  5.000000000000000    
_SL_PRINT_CODES=  0.000000000000000    
_SL_BasType=  0.000000000000000    
_SL_Energy_Pred=  0.000000000000000    
_SL_New_Coords=  0.000000000000000    
_SL_Total_Nuclea=  0.000000000000000    
_SL_Highest_Mltp=  0.000000000000000    
_SL_Ref_Geom=  0.000000000000000    
!LATTICE= -1.000000000000000    
!NEWLATTICE=  0.000000000000000    
!LATGRAD_VAR=FALSE
!SEW_LATTICE=  1.000000000000000    
!LOCAL=  0.000000000000000    
!SAVEDOM= -1.000000000000000    
!RESTDOM= -1.000000000000000    
!SAVEDOM_HF= -1.000000000000000    
!RESTDOM_HF= -1.000000000000000    
!HESSREC=  0.000000000000000    
!FREQREC=  0.000000000000000    
!NMODREC=  0.000000000000000    
!GTASKS=  0.000000000000000    
!HTASKS=  0.000000000000000    
!THRCHG= 0.1000000000000000    
!DEBUG= -1.000000000000000    
!CFIT_CPHF=  0.000000000000000    
!RDOMAUX_CPHF=  3.000000000000000    
!THRAO_CPHF= 0.1000000000000000E-09
!THRMO_CPHF= 0.1000000000000000E-09
!THROV_CPHF= 0.1000000000000000E-11
!THRSW_CPHF= 0.1000000000000000E-09
!THRPROD_CPHF= 0.1000000000000000E-09
!THRAOPR_CPHF= 0.1000000000000000E-11
!CFIT_SCFGRD=  0.000000000000000    
!RDOMAUX_SCFGRD=  5.000000000000000    
!THRAO_SCFGRD= 0.1000000000000000E-09
!THRMO_SCFGRD= 0.1000000000000000E-09
!THROV_SCFGRD= 0.1000000000000000E-11
!THRSW_SCFGRD= 0.1000000000000000E-09
!THRPROD_SCFGRD= 0.1000000000000000E-09
!THRAOPR_SCFGRD= 0.1000000000000000E-11
!LOCFIT_SCF=  0.000000000000000    
!LOCFIT_MP2= -1.000000000000000    
_RIDOM=  0.000000000000000    
!CC2_METHOD=  0.000000000000000    
_BASIS2006=FALSE
_SVDDEL= -1.000000000000000    
_SVDDELA= -1.000000000000000    
_SVDDELP= -1.000000000000000    
_SVDDELF= -1.000000000000000    
_SVDDELS= -1.000000000000000    
_SVDDEL_ABS= -1.000000000000000    
_SVDDELA_ABS= -1.000000000000000    
_SVDDELP_ABS= -1.000000000000000    
_SVDDELF_ABS= -1.000000000000000    
_SVDDELS_ABS= -1.000000000000000    
_MAXBASIS=  0.000000000000000    
!OPT_CONICAL=  0.000000000000000    
!CLEARSP_JGRID=  0.000000000000000    
RCC1=  1.333694372702137    
RCC2=  1.100045150360819    
RCC3=  1.095306852870254    
RCH2=  1.092256571044079    
ACCC1=  121.2511536931212    
AHCC1=  121.6822148849798    
AHCC2=  118.4532131931083    
AHCC3=  135.6857338399497    
B1=  180.0003822682288    
B2=  180.0076194510071    
B3=  180.0438969235259    
RCH1=  10.00000000000000    
GX1= -1.099752041460620    
GY1=-0.1118294215205674E-03
GZ1=-0.1068947968182908    
GX2= 0.9627541699074504    
GY2= 0.2418583586399992E-04
GZ2=  1.341575579664194    
GX3= 0.8239461601559230    
GY3=-0.2189059163082321E-03
GZ3=  3.415720095355423    
GX4=  2.864667765142342    
GY4= 0.3932222937245694E-03
GZ4= 0.5249234544566423    
GX5=  1.080972779145881    
GY5= 0.9578927711377874E-05
GZ5= -18.87790767358602    
GX6= -3.137067471925215    
GY6= 0.8604993089574814E-03
GZ6= 0.2243339069335295    
CBSEN= -78.14419350753154    
[Atoms] Angs
C     1    6        -0.5819637159       -0.0000591776       -0.0565662902
C     2    6         0.5094675646        0.0000127986        0.7099312209
H     3    1         0.4360135294       -0.0001158400        1.8075212268
H     4    1         1.5159168927        0.0002080843        0.2777775286
H     5    1         0.5720261583        0.0000050690       -9.9897584945
H     6    1        -1.6600646092        0.0004553566        0.1187123908
[GTO]
  1 0
 s    9  1.00
  0.6665000000D+04  0.6920001793D-03
  0.1000000000D+04  0.5329001381D-02
  0.2280000000D+03  0.2707700701D-01
  0.6471000000D+02  0.1017180264D+00
  0.2106000000D+02  0.2747400712D+00
  0.7495000000D+01  0.4485641162D+00
  0.2797000000D+01  0.2850740738D+00
  0.5215000000D+00  0.1520400394D-01
  0.1596000000D+00 -0.3191000827D-02
 s    9  1.00
  0.6665000000D+04 -0.1460000642D-03
  0.1000000000D+04 -0.1154000508D-02
  0.2280000000D+03 -0.5725002519D-02
  0.6471000000D+02 -0.2331201026D-01
  0.2106000000D+02 -0.6395502813D-01
  0.7495000000D+01 -0.1499810660D+00
  0.2797000000D+01 -0.1272620560D+00
  0.5215000000D+00  0.5445292395D+00
  0.1596000000D+00  0.5804962554D+00
 s    9  1.00
  0.6665000000D+04  0.0000000000D+00
  0.1000000000D+04  0.0000000000D+00
  0.2280000000D+03  0.0000000000D+00
  0.6471000000D+02  0.0000000000D+00
  0.2106000000D+02  0.0000000000D+00
  0.7495000000D+01  0.0000000000D+00
  0.2797000000D+01  0.0000000000D+00
  0.5215000000D+00  0.0000000000D+00
  0.1596000000D+00  0.1000000000D+01
 p    4  1.00
  0.9439000000D+01  0.3810902127D-01
  0.2002000000D+01  0.2094801169D+00
  0.5456000000D+00  0.5085572839D+00
  0.1517000000D+00  0.4688422617D+00
 p    4  1.00
  0.9439000000D+01  0.0000000000D+00
  0.2002000000D+01  0.0000000000D+00
  0.5456000000D+00  0.0000000000D+00
  0.1517000000D+00  0.1000000000D+01
 d    1  1.00
  0.5500000000D+00  0.1000000000D+01
  
  2 0
 s    9  1.00
  0.6665000000D+04  0.6920001793D-03
  0.1000000000D+04  0.5329001381D-02
  0.2280000000D+03  0.2707700701D-01
  0.6471000000D+02  0.1017180264D+00
  0.2106000000D+02  0.2747400712D+00
  0.7495000000D+01  0.4485641162D+00
  0.2797000000D+01  0.2850740738D+00
  0.5215000000D+00  0.1520400394D-01
  0.1596000000D+00 -0.3191000827D-02
 s    9  1.00
  0.6665000000D+04 -0.1460000642D-03
  0.1000000000D+04 -0.1154000508D-02
  0.2280000000D+03 -0.5725002519D-02
  0.6471000000D+02 -0.2331201026D-01
  0.2106000000D+02 -0.6395502813D-01
  0.7495000000D+01 -0.1499810660D+00
  0.2797000000D+01 -0.1272620560D+00
  0.5215000000D+00  0.5445292395D+00
  0.1596000000D+00  0.5804962554D+00
 s    9  1.00
  0.6665000000D+04  0.0000000000D+00
  0.1000000000D+04  0.0000000000D+00
  0.2280000000D+03  0.0000000000D+00
  0.6471000000D+02  0.0000000000D+00
  0.2106000000D+02  0.0000000000D+00
  0.7495000000D+01  0.0000000000D+00
  0.2797000000D+01  0.0000000000D+00
  0.5215000000D+00  0.0000000000D+00
  0.1596000000D+00  0.1000000000D+01
 p    4  1.00
  0.9439000000D+01  0.3810902127D-01
  0.2002000000D+01  0.2094801169D+00
  0.5456000000D+00  0.5085572839D+00
  0.1517000000D+00  0.4688422617D+00
 p    4  1.00
  0.9439000000D+01  0.0000000000D+00
  0.2002000000D+01  0.0000000000D+00
  0.5456000000D+00  0.0000000000D+00
  0.1517000000D+00  0.1000000000D+01
 d    1  1.00
  0.5500000000D+00  0.1000000000D+01
  
  3 0
 s    4  1.00
  0.1301000000D+02  0.1968498999D-01
  0.1962000000D+01  0.1379769298D+00
  0.4446000000D+00  0.4781477569D+00
  0.1220000000D+00  0.5012397451D+00
 s    4  1.00
  0.1301000000D+02  0.0000000000D+00
  0.1962000000D+01  0.0000000000D+00
  0.4446000000D+00  0.0000000000D+00
  0.1220000000D+00  0.1000000000D+01
 p    1  1.00
  0.7270000000D+00  0.1000000000D+01
  
  4 0
 s    4  1.00
  0.1301000000D+02  0.1968498999D-01
  0.1962000000D+01  0.1379769298D+00
  0.4446000000D+00  0.4781477569D+00
  0.1220000000D+00  0.5012397451D+00
 s    4  1.00
  0.1301000000D+02  0.0000000000D+00
  0.1962000000D+01  0.0000000000D+00
  0.4446000000D+00  0.0000000000D+00
  0.1220000000D+00  0.1000000000D+01
 p    1  1.00
  0.7270000000D+00  0.1000000000D+01
  
  5 0
 s    4  1.00
  0.1301000000D+02  0.1968498999D-01
  0.1962000000D+01  0.1379769298D+00
  0.4446000000D+00  0.4781477569D+00
  0.1220000000D+00  0.5012397451D+00
 s    4  1.00
  0.1301000000D+02  0.0000000000D+00
  0.1962000000D+01  0.0000000000D+00
  0.4446000000D+00  0.0000000000D+00
  0.1220000000D+00  0.1000000000D+01
 p    1  1.00
  0.7270000000D+00  0.1000000000D+01
  
  6 0
 s    4  1.00
  0.1301000000D+02  0.1968498999D-01
  0.1962000000D+01  0.1379769298D+00
  0.4446000000D+00  0.4781477569D+00
  0.1220000000D+00  0.5012397451D+00
 s    4  1.00
  0.1301000000D+02  0.0000000000D+00
  0.1962000000D+01  0.0000000000D+00
  0.4446000000D+00  0.0000000000D+00
  0.1220000000D+00  0.1000000000D+01
 p    1  1.00
  0.7270000000D+00  0.1000000000D+01
 
 
[MO]
 Sym=      1.1
 Ene=     -11.2426
 Spin= Alpha
 Occup=    2.000000
1 0.99043340179198
2 0.006558257352211
3 -0.007091857280312
4 -0.000667689706180
5 0.000003073342275
6 0.001355207586860
7 0.000306140412940
8 -0.000000990327645
9 -0.001386702918686
10 0.001297169750005
11 -0.000646113692417
12 -0.000651056057588
13 -0.000000510338135
14 0.000368667122288
15 0.000000042639875
16 0.14504667114764
17 -0.000158976470565
18 0.001135474236829
19 0.000438339232859
20 0.000002254555620
21 0.000241952999456
22 -0.001574752194708
23 0.000000003036549
24 -0.000252117397759
25 0.000277016933781
26 0.000222815609978
27 -0.000499832543758
28 -0.000000247115820
29 -0.000200154097088
30 -0.000000276650479
31 0.000090843563358
32 0.000158848647946
33 0.000065429114054
34 0.000000119123575
35 -0.000205002542872
36 0.000030495562771
37 0.000916776959962
38 -0.000058063802737
39 0.000000027317708
40 -0.000114358322775
41 -0.000000000003155
42 -0.000000000001597
43 -0.000000000000061
44 -0.000000000000056
45 -0.000000000000066
46 -0.001421258658734
47 0.002272075923909
48 -0.000740882393616
49 0.000000582238892
50 0.000462512662185
 Sym=      2.1
 Ene=     -11.2370
 Spin= Alpha
 Occup=    2.000000
1 -0.14605223568800
2 -0.001864277132024
3 0.003670451347958
4 -0.000144737260467
5 -0.000000453654017
6 -0.000448448134216
7 0.001087255136350
8 0.000000104616320
9 0.000811548035194
10 -0.000445527882868
11 0.000405015962016
12 0.000040511920852
13 0.000000110920121
14 -0.000135162918662
15 0.000000028124027
16 0.99085057770325
17 0.008500632511586
18 -0.009624273744953
19 0.000002256294826
20 -0.000000686136492
21 -0.000051223887680
22 0.000591913136254
23 0.000000329979689
24 0.000448252484917
25 0.000370071876710
26 -0.000759572704985
27 0.000389500828275
28 0.000000162076660
29 0.000165400259140
30 -0.000000097972927
31 -0.000588402254191
32 0.001468633292802
33 -0.000124040285894
34 -0.000000070982808
35 0.000559376897542
36 -0.000570056783827
37 0.001439197879893
38 0.000476050730336
39 0.000000105774851
40 -0.000270135374937
41 0.000000000001121
42 -0.000000000000102
43 -0.000000000000074
44 0.000000000000073
45 -0.000000000000062
46 0.000372100795906
47 -0.000106876551284
48 0.000242852521722
49 -0.000000215911370
50 -0.000093472453977
 Sym=      3.1
 Ene=      -1.0133
 Spin= Alpha
 Occup=    2.000000
1 -0.017885240830961
2 0.55684249074146
3 -0.12428248820645
4 0.15559254141754
5 0.000118484091125
6 0.17256624876332
7 -0.041348699765595
8 -0.000012218319285
9 -0.042646417671995
10 0.011136394848175
11 -0.010433291365965
12 -0.000703103482211
13 0.000005146803032
14 0.019515697305818
15 0.000004738349437
16 -0.023470635633905
17 0.65798324809015
18 -0.18665195589151
19 -0.14775371627934
20 0.000073868721985
21 -0.096882927105834
22 0.057427404719195
23 0.000003632015852
24 0.042173233021258
25 0.009919262412726
26 -0.007213943259772
27 -0.002705319152954
28 -0.000003312554461
29 0.015400393596809
30 -0.000001551944177
31 0.21006330807310
32 -0.10295623213890
33 -0.000812223831732
34 0.000003866052740
35 -0.020405969875679
36 0.21588564437483
37 -0.097642749642133
38 -0.019308905358239
39 -0.000001969944294
40 0.005900836632030
41 -0.000000000126970
42 -0.000000000043149
43 0.000000000002123
44 -0.000000000002636
45 0.000000000001353
46 0.16603291841151
47 -0.070991541240535
48 0.014849524482282
49 -0.000003561873025
50 0.000858354219281
 Sym=      4.1
 Ene=      -0.7568
 Spin= Alpha
 Occup=    2.000000
1 -0.011799945232289
2 0.51712881188755
3 -0.090259389339660
4 -0.24695926874100
5 0.000181367045434
6 0.052141977229901
7 0.057023784642289
8 -0.000028854204540
9 -0.009920097449487
10 0.005404169088053
11 -0.002638777371972
12 -0.002765391716081
13 -0.000004007218982
14 -0.006527807127400
15 0.000004609681335
16 0.011070561041620
17 -0.37891114041945
18 0.057270113587119
19 -0.27673092758123
20 0.000078186856888
21 -0.12637267201129
22 0.061944906028158
23 0.000001212591359
24 0.028374798621225
25 0.007667020145671
26 0.000746211178153
27 -0.008413231323824
28 -0.000006521362827
29 0.012756998415127
30 -0.000001516857175
31 -0.28868402132146
32 0.10145921690902
33 -0.005592087228513
34 -0.000000716372992
35 0.017353039265623
36 -0.34966914029947
37 0.13704943176090
38 0.018072116015652
39 0.000006470301096
40 -0.012717658351967
41 -0.000000000201468
42 -0.000000000044733
43 -0.000000000000239
44 0.000000000000481
45 0.000000000003134
46 0.48228388344408
47 -0.17758994233627
48 0.028244107826632
49 -0.000013000726371
50 -0.004124316542758
 Sym=      5.1
 Ene=      -0.6096
 Spin= Alpha
 Occup=    2.000000
1 -0.002447600254238
2 -0.10177090072204
3 0.055321543275976
4 -0.48445800636020
5 0.000038950276260
6 -0.067931851200856
7 0.12802728556704
8 -0.000019282282621
9 0.015956037977149
10 -0.005057677018575
11 -0.000114018064552
12 0.005171695083126
13 -0.000011930440817
14 -0.011777930363574
15 -0.000000938965666
16 -0.002748821399145
17 0.006486475561350
18 0.019473188382377
19 0.17272947985851
20 -0.000051963504875
21 0.56264213544100
22 -0.044648964961457
23 0.000000851953446
24 -0.11656473845719
25 -0.008449015216868
26 -0.000763624546746
27 0.009212639763615
28 -0.000002272332153
29 -0.015089645300766
30 -0.000004795186696
31 0.53710531489057
32 -0.15763279020660
33 0.005683897865134
34 0.000002727135391
35 -0.021098518576211
36 -0.052797646589433
37 0.020300008799503
38 0.005878411177625
39 -0.000000568359217
40 0.008052531700479
41 0.000000000163773
42 0.000000000078288
43 -0.000000000002103
44 0.000000000003318
45 0.000000000001410
46 0.36953398328255
47 -0.11126269268699
48 0.013923470805030
49 -0.000011485688710
50 -0.005631767403888
 Sym=      6.1
 Ene=      -0.5699
 Spin= Alpha
 Occup=    2.000000
1 0.002433329312759
2 -0.027960095820607
3 -0.029556853493984
4 0.31455081353296
5 -0.000075179458646
6 0.17378338989915
7 -0.079169842844083
8 0.000027376671596
9 -0.056544219252354
10 -0.022271995986271
11 0.001908107021233
12 0.020363888965038
13 0.000007060262571
14 0.016801450866225
15 -0.000000319506886
16 0.000927158269669
17 0.036281176360294
18 -0.010694142609408
19 -0.54983558647485
20 -0.000084816386431
21 0.24679030211684
22 0.10641794761486
23 0.000029984356974
24 -0.047590965964567
25 -0.014680901692273
26 -0.000409817146909
27 0.015090718839183
28 0.000000488909850
29 0.018125849120544
30 0.000001959355622
31 0.31414650354459
32 -0.078761154108237
33 -0.009391622927336
34 0.000000567448636
35 -0.011749210233067
36 -0.59404025811479
37 0.16009541680997
38 0.019614096329911
39 0.000004270864446
40 -0.007323225315950
41 0.000000000397082
42 -0.000000000145881
43 -0.000000000000533
44 -0.000000000000626
45 0.000000000002624
46 -0.32146747347387
47 0.076306247598934
48 -0.008874234041709
49 0.000004923604909
50 0.003921506890997
 Sym=      7.1
 Ene=      -0.3629
 Spin= Alpha
 Occup=    1.897698
1 0.000000529388820
2 -0.000341666647923
3 -0.000024507740484
4 0.000085621477672
5 0.60088406299097
6 0.000084590462805
7 0.000019196353208
8 -0.011305051043580
9 -0.000005981516503
10 -0.000004526476202
11 -0.000001488494845
12 0.000006014971047
13 0.021977259797586
14 0.000001497888727
15 0.018816567561947
16 0.000002672951787
17 0.000032887700796
18 0.000002924289692
19 -0.000061312737416
20 0.60446538689725
21 0.000062251383551
22 -0.000010990532590
23 0.001616687754886
24 0.000003752442670
25 -0.000000460829451
26 -0.000004155378873
27 0.000004616208324
28 -0.023096772211058
29 -0.000002540646892
30 -0.015743925608521
31 0.000023402998612
32 -0.000009365501680
33 -0.000002033606081
34 0.013333090222029
35 0.000001690459250
36 0.000016992098259
37 -0.000024430114640
38 -0.000004121905226
39 0.013262760491884
40 0.000002026398838
41 0.000000000217451
42 0.000000000033827
43 0.000000000002575
44 0.000000000000151
45 0.000000000000718
46 0.000002012602183
47 0.000002462412527
48 0.000006254202657
49 0.014146476682185
50 -0.000000155695149
 Sym=      9.1
 Ene=      -0.1763
 Spin= Alpha
 Occup=    1.000000
1 -0.001044873402111
2 -0.14662728052160
3 -0.054105495537291
4 -0.068546898367000
5 -0.000051490555713
6 0.34771233961720
7 -0.008611722325744
8 -0.000012166257236
9 0.014189391091549
10 0.010369429528470
11 -0.001147968180126
12 -0.009221461348344
13 -0.000005229836510
14 0.002588948347654
15 0.000002377227264
16 0.000740902027417
17 0.046268451879004
18 -0.009973544248927
19 -0.031087147916522
20 -0.000041417622521
21 -0.051085124730941
22 0.024699179354953
23 -0.000000503735087
24 -0.014134297434338
25 0.013951476551644
26 -0.000754194952663
27 -0.013197281598982
28 0.000004141011616
29 -0.005147531955395
30 0.000002138286424
31 -0.075784181571445
32 -0.003552931593206
33 -0.000271957041130
34 -0.000001019455605
35 0.000022281295548
36 0.055361029277799
37 -0.008079291725393
38 -0.000916624345427
39 -0.000001032905729
40 -0.001500472295751
41 0.91082554636035
42 -0.000000771515879
43 0.000002343376704
44 0.000000012298491
45 -0.000030151699935
46 0.087926680686086
47 -0.010471003217821
48 0.001118920150107
49 -0.000002845282653
50 0.006523583274195
 Sym=      8.1
 Ene=      -0.1388
 Spin= Alpha
 Occup=    1.000000
1 0.002305506213168
2 0.32353203402711
3 0.11938337189620
4 0.15124823398300
5 0.000113613722159
6 -0.76722475576005
7 0.019001704797301
8 0.000026844437267
9 -0.031308795535925
10 -0.022880071228509
11 0.002532983973383
12 0.020347087255126
13 0.000011539568432
14 -0.005712495931077
15 -0.000005245383892
16 -0.001634794947512
17 -0.10209100360454
18 0.022006556296063
19 0.068593566453312
20 0.000091387162974
21 0.11271895624198
22 -0.054498568693007
23 0.000001111428343
24 0.031187228994723
25 -0.030783831814404
26 0.001664125517560
27 0.029119706296845
28 -0.000009137068872
29 0.011357992288385
30 -0.000004718081768
31 0.16721724534735
32 0.007839515636824
33 0.000600071558940
34 0.000002249411544
35 -0.000049163264084
36 -0.12215370874584
37 0.017826905123640
38 0.002022524616350
39 0.000002279089581
40 0.003310781352146
41 0.41279335320182
42 -0.000000347663891
43 0.000001062036587
44 0.000000005573789
45 -0.000013664986883
46 -0.19400958192500
47 0.023104196602539
48 -0.002468888694316
49 0.000006278083987
50 -0.014394238973414
 Sym=     10.1
 Ene=       0.2184
 Spin= Alpha
 Occup=    0.102302
1 -0.000034510353118
2 -0.000376856681828
3 -0.000064677039102
4 0.000168738248714
5 0.88606861410203
6 -0.000031148940579
7 -0.000085461353630
8 -0.024833424187578
9 -0.000115152231075
10 0.000065354330386
11 -0.000079743520275
12 0.000014389189890
13 -0.000828731960148
14 0.000005455336305
15 -0.014781900023287
16 -0.000002924809578
17 0.000079268727727
18 0.000107761267494
19 -0.000008499625847
20 -0.85635219558674
21 -0.000155896652872
22 -0.000054846381296
23 0.007434279444984
24 -0.000027102523281
25 -0.000005138473135
26 -0.000005492424639
27 0.000010630897774
28 -0.008469672716265
29 0.000006590534535
30 -0.006151969111229
31 0.000048974835103
32 0.000029087913276
33 0.000000227128974
34 -0.011165154846783
35 -0.000002858436195
36 -0.000086512108786
37 0.000026709415076
38 0.000001653840211
39 -0.010912049413164
40 -0.000002398196803
41 -0.000000000438893
42 0.000000000340960
43 -0.000000000001060
44 0.000000000000504
45 0.000000000000381
46 0.000195395833392
47 -0.000042871545848
48 0.000005739055111
49 0.011779320058629
50 0.000000946680261
 Sym=     11.1
 Ene=       0.2115
 Spin= Alpha
 Occup=    0.000000
1 0.019224823489650
2 -0.062396687838638
3 -0.70262676738481
4 0.17010406177907
5 -0.000068739779803
6 0.018316958117906
7 0.38146210209108
8 -0.000213117591294
9 -0.032350419420825
10 -0.013987640325515
11 0.005292607175406
12 0.008695033150108
13 0.000016349262444
14 0.000076620317509
15 -0.000005663260204
16 0.060814548556422
17 -0.15125734708776
18 -1.69156436168708
19 -0.16072825981985
20 0.000009799646676
21 -0.19097687037954
22 -0.43900562371127
23 0.000079405441266
24 -0.31065290933292
25 -0.011690559022060
26 0.020327009370253
27 -0.008636450348193
28 -0.000006424582435
29 0.010900470360580
30 0.000009171740200
31 0.027738888129326
32 1.37514751048117
33 0.000342891834788
34 0.000002295035539
35 -0.019111496563439
36 0.035605697252244
37 1.08717618041938
38 -0.017955944952575
39 -0.000004407966380
40 0.005885190604737
41 -0.000000005059663
42 0.000000004964435
43 0.000000000000019
44 -0.000000000000003
45 0.000000000000389
46 -0.035332202043076
47 0.93844176294207
48 0.014958443862007
49 -0.000005798358576
50 0.006246941671773
 Sym=     12.1
 Ene=       0.2254
 Spin= Alpha
 Occup=    0.000000
1 -0.041410132899571
2 0.15552093880458
3 1.09526185411345
4 -0.24774494409288
5 0.000192218364751
6 0.10390195352530
7 -0.63457273979360
8 0.000448490630033
9 0.069910218025552
10 0.012019244875413
11 -0.010895686580459
12 -0.001123558294954
13 -0.000020280605563
14 -0.015080288847637
15 0.000005027477242
16 0.026269941111074
17 -0.15486486427777
18 -0.66397407494158
19 -0.13514682887875
20 -0.000068389064141
21 0.13935405406454
22 -0.36061102704726
23 -0.000291484624155
24 0.085573817393836
25 0.007582647807871
26 0.009686767394482
27 -0.017269415202353
28 -0.000005354815544
29 0.003865257191127
30 -0.000007435859036
31 -0.010410382965544
32 0.014693817367503
33 0.004075576891608
34 -0.000001331643269
35 -0.004094406680288
36 0.060711675663987
37 1.25525411182533
38 -0.010159259430297
39 -0.000001655050104
40 0.010205312094032
41 0.000000001306450
42 -0.000000001289637
43 0.000000000000079
44 0.000000000000002
45 -0.000000000000084
46 -0.082028742882329
47 -1.76848393971964
48 -0.021898120335184
49 0.000014951808955
50 0.008543788683313
 Sym=     13.1
 Ene=       0.2696
 Spin= Alpha
 Occup=    0.000000
1 -0.023611858512527
2 0.072491259435199
3 0.82432353679213
4 -0.082555008813010
5 0.000072479748969
6 0.010701727070747
7 -0.58190528050918
8 0.000154855742132
9 0.50903951260894
10 0.028405785621078
11 -0.018149659335574
12 -0.010256126285504
13 -0.000020446202337
14 -0.010140128592004
15 0.000007847741907
16 0.012531285841745
17 -0.017833201133162
18 -0.25616346345499
19 0.23050839210992
20 0.000078410731224
21 -0.33017801937616
22 0.89503239275679
23 0.000135419337693
24 -1.12556597485959
25 0.020009626397107
26 0.005861373593779
27 -0.025870999990886
28 0.000003597414591
29 -0.009447245645934
30 -0.000002517503932
31 -0.013743140835381
32 1.95317927518738
33 -0.003773396843611
34 0.000002613602093
35 -0.027061315866318
36 0.031343690584818
37 -1.71062027268334
38 0.023007330530248
39 0.000005834420952
40 -0.002039407190741
41 0.000000011489235
42 -0.000000011602931
43 0.000000000000060
44 -0.000000000000002
45 -0.000000000000832
46 0.062483556833594
47 -1.15537791567982
48 -0.021865667488850
49 0.000008311110417
50 0.000283351918813
 Sym=     14.1
 Ene=       0.4581
 Spin= Alpha
 Occup=    0.000000
1 0.046481140524831
2 -0.17272580676036
3 -3.72987169378495
4 -0.29247889608122
5 0.000127438420713
6 -0.002259334755304
7 -2.53705121116171
8 -0.000173991321284
9 -1.56483147997487
10 -0.034240993879792
11 0.031828265032917
12 0.002412728846875
13 0.000011576968265
14 -0.059034749100175
15 -0.000014147249872
16 -0.081317571849735
17 -0.060490693359066
18 3.66598503429836
19 -0.063267925601704
20 0.000081898271495
21 -0.070376727457414
22 -2.65749359601887
23 -0.000181826429069
24 -2.09211336898500
25 0.052576661546990
26 -0.056196263057503
27 0.003619601510513
28 0.000008827417193
29 0.003974663816041
30 -0.000021829958412
31 0.21468274886699
32 0.68626807584908
33 -0.011831115840578
34 -0.000002830116535
35 0.003948898742829
36 0.27429196883675
37 0.23916382469932
38 0.013270260075550
39 0.000008428643700
40 -0.018617588563149
41 -0.000000011619158
42 0.000000012310996
43 -0.000000000000107
44 0.000000000000001
45 0.000000000000388
46 0.086707596647950
47 -1.17076555666761
48 0.013669496768404
49 -0.000013423278497
50 -0.007870151975879
 Sym=     15.1
 Ene=       0.5978
 Spin= Alpha
 Occup=    0.000000
1 0.17307645834849
2 0.54971141460525
3 -0.90521567184882
4 0.36480593500308
5 0.000089380469283
6 0.38193872956835
7 -1.14260405852198
8 -0.000363284761367
9 -0.89037997341874
10 0.14470015029237
11 -0.081160397149144
12 -0.063539753143224
13 -0.000060512006949
14 0.031700828459990
15 0.000019257455292
16 0.10944214966997
17 0.56238295010845
18 0.36744458389686
19 -0.64267741426070
20 0.000066595177931
21 -0.38398024081519
22 0.70720994023525
23 0.000197174731794
24 0.16797562961653
25 -0.005669991119679
26 -0.025959238141506
27 0.031629229261185
28 0.000001098051109
29 0.024392783917025
30 -0.000003498066609
31 0.17476705953182
32 -0.009426047274654
33 0.032950115942803
34 0.000011845859361
35 0.036387395777631
36 -0.53045559596093
37 0.38395782602014
38 0.012208393035806
39 0.000015124576111
40 -0.013010561683464
41 -0.000000027338137