 Entering Gaussian System, Link 0=g09
 Input=run.inp
 Output=run.out
 Initial command:
 /soft/gaussian/09-e.01/g09/l1.exe "/blues/gpfs/home/elliott/Packages/PACC/moldriver/rcdriver/tmprundir/RXN/CH3.H2/MDUSDFXREFXETQ/0_0/2_1/UHFFFAOYSA-N/CH4.H/HXBDELFRWIQQII/0_0/1_2/UHFFFAOYSA-N/2/ezvlpJU/SCANS/R6/07/RUN/OPTI/A00/Gau-162861.inp" -scrdir="/blues/gpfs/home/elliott/Packages/PACC/moldriver/rcdriver/tmprundir/RXN/CH3.H2/MDUSDFXREFXETQ/0_0/2_1/UHFFFAOYSA-N/CH4.H/HXBDELFRWIQQII/0_0/1_2/UHFFFAOYSA-N/2/ezvlpJU/SCANS/R6/07/RUN/OPTI/A00/"
 Entering Link 1 = /soft/gaussian/09-e.01/g09/l1.exe PID=    162862.
  
 Copyright (c) 1988,1990,1992,1993,1995,1998,2003,2009,2015,
            Gaussian, Inc.  All Rights Reserved.
  
 This is part of the Gaussian(R) 09 program.  It is based on
 the Gaussian(R) 03 system (copyright 2003, Gaussian, Inc.),
 the Gaussian(R) 98 system (copyright 1998, Gaussian, Inc.),
 the Gaussian(R) 94 system (copyright 1995, Gaussian, Inc.),
 the Gaussian 92(TM) system (copyright 1992, Gaussian, Inc.),
 the Gaussian 90(TM) system (copyright 1990, Gaussian, Inc.),
 the Gaussian 88(TM) system (copyright 1988, Gaussian, Inc.),
 the Gaussian 86(TM) system (copyright 1986, Carnegie Mellon
 University), and the Gaussian 82(TM) system (copyright 1983,
 Carnegie Mellon University). Gaussian is a federally registered
 trademark of Gaussian, Inc.
  
 This software contains proprietary and confidential information,
 including trade secrets, belonging to Gaussian, Inc.
  
 This software is provided under written license and may be
 used, copied, transmitted, or stored only in accord with that
 written license.
  
 The following legend is applicable only to US Government
 contracts under FAR:
  
                    RESTRICTED RIGHTS LEGEND
  
 Use, reproduction and disclosure by the US Government is
 subject to restrictions as set forth in subparagraphs (a)
 and (c) of the Commercial Computer Software - Restricted
 Rights clause in FAR 52.227-19.
  
 Gaussian, Inc.
 340 Quinnipiac St., Bldg. 40, Wallingford CT 06492
  
  
 ---------------------------------------------------------------
 Warning -- This program may not be used in any manner that
 competes with the business of Gaussian, Inc. or will provide
 assistance to any competitor of Gaussian, Inc.  The licensee
 of this program is prohibited from giving any competitor of
 Gaussian, Inc. access to this program.  By using this program,
 the user acknowledges that Gaussian, Inc. is engaged in the
 business of creating and licensing software in the field of
 computational chemistry and represents and warrants to the
 licensee that it is not a competitor of Gaussian, Inc. and that
 it will not use this program in any manner prohibited above.
 ---------------------------------------------------------------
  

 Cite this work as:
 Gaussian 09, Revision E.01,
 M. J. Frisch, G. W. Trucks, H. B. Schlegel, G. E. Scuseria, 
 M. A. Robb, J. R. Cheeseman, G. Scalmani, V. Barone, B. Mennucci, 
 G. A. Petersson, H. Nakatsuji, M. Caricato, X. Li, H. P. Hratchian, 
 A. F. Izmaylov, J. Bloino, G. Zheng, J. L. Sonnenberg, M. Hada, 
 M. Ehara, K. Toyota, R. Fukuda, J. Hasegawa, M. Ishida, T. Nakajima, 
 Y. Honda, O. Kitao, H. Nakai, T. Vreven, J. A. Montgomery, Jr., 
 J. E. Peralta, F. Ogliaro, M. Bearpark, J. J. Heyd, E. Brothers, 
 K. N. Kudin, V. N. Staroverov, T. Keith, R. Kobayashi, J. Normand, 
 K. Raghavachari, A. Rendell, J. C. Burant, S. S. Iyengar, J. Tomasi, 
 M. Cossi, N. Rega, J. M. Millam, M. Klene, J. E. Knox, J. B. Cross, 
 V. Bakken, C. Adamo, J. Jaramillo, R. Gomperts, R. E. Stratmann, 
 O. Yazyev, A. J. Austin, R. Cammi, C. Pomelli, J. W. Ochterski, 
 R. L. Martin, K. Morokuma, V. G. Zakrzewski, G. A. Voth, 
 P. Salvador, J. J. Dannenberg, S. Dapprich, A. D. Daniels, 
 O. Farkas, J. B. Foresman, J. V. Ortiz, J. Cioslowski, 
 and D. J. Fox, Gaussian, Inc., Wallingford CT, 2013.
 
 ******************************************
 Gaussian 09:  ES64L-G09RevE.01 30-Nov-2015
                 5-Sep-2019 
 ******************************************
 %mem=20GB
 %NProcShared=10
 Will use up to   10 processors via shared memory.
 -----------------------------------------------------
 #P b3lyp/6-31g* # SCF=(xqc) # POpt=() # int=ultrafine
 -----------------------------------------------------
 1/10=7,14=-1,26=4,38=1/1,3;
 2/12=2,17=6,18=5,29=3,40=1/2;
 3/5=1,6=6,7=1,11=2,16=1,25=1,30=1,71=1,74=-5,75=-5/1,2,3;
 4//1;
 5/5=2,8=3,13=1,38=5/2,8;
 6/7=2,8=2,9=2,10=2,28=1/1;
 7/29=1/1,2,3,16;
 1/10=7,14=-1,26=4/3(2);
 2/29=3/2;
 99//99;
 2/29=3/2;
 3/5=1,6=6,7=1,11=2,16=1,25=1,30=1,71=1,74=-5,75=-5/1,2,3;
 4/5=5,16=3,69=1/1;
 5/5=2,8=3,13=1,38=5/2,8;
 7//1,2,3,16;
 1/14=-1,26=4/3(-5);
 2/29=3/2;
 6/7=2,8=2,9=2,10=2,19=2,28=1/1;
 99/9=1/99;
 Leave Link    1 at Thu Sep  5 23:08:25 2019, MaxMem=  2684354560 cpu:         7.9
 (Enter /soft/gaussian/09-e.01/g09/l101.exe)
 --------
 comment:
 --------
 Symbolic Z-matrix:
 Charge =  0 Multiplicity = 2
 C
 H                    1    R1
 H                    1    R2       2    A2
 H                    1    R3       2    A3       3    D3       0
 H                    1    R4       2    A4       3    D4       0
 X                    5    R5       1    A5       2    D5       0
 H                    5    R6       6    A6       1    D6       0
       Variables:
  R1                    1.0922                   
  R2                    1.0922                   
  A2                  109.471                    
  R3                    1.0922                   
  A3                  109.471                    
  D3                  120.                       
  R4                    1.0922                   
  A4                  109.471                    
  D4                  240.                       
  A6                   85.                       
  D6                  180.                       
       Constants:
  A5                   90.                       
  D5                  180.                       
  R5                    1.                       
  R6                    1.74                     
 
     3 tetrahedral angles replaced.
 NAtoms=      6 NQM=        6 NQMF=       0 NMMI=      0 NMMIF=      0
                NMic=       0 NMicF=      0.
    3 tetrahedral angles replaced.
                    Isotopes and Nuclear Properties:
 (Nuclear quadrupole moments (NQMom) in fm**2, nuclear magnetic moments (NMagM)
  in nuclear magnetons)

  Atom         1           2           3           4           5           6
 IAtWgt=          12           1           1           1           1           1
 AtmWgt=  12.0000000   1.0078250   1.0078250   1.0078250   1.0078250   1.0078250
 NucSpn=           0           1           1           1           1           1
 AtZEff=   0.0000000   0.0000000   0.0000000   0.0000000   0.0000000   0.0000000
 NQMom=    0.0000000   0.0000000   0.0000000   0.0000000   0.0000000   0.0000000
 NMagM=    0.0000000   2.7928460   2.7928460   2.7928460   2.7928460   2.7928460
 AtZNuc=   6.0000000   1.0000000   1.0000000   1.0000000   1.0000000   1.0000000
 Leave Link  101 at Thu Sep  5 23:08:25 2019, MaxMem=  2684354560 cpu:         0.5
 (Enter /soft/gaussian/09-e.01/g09/l103.exe)

 GradGradGradGradGradGradGradGradGradGradGradGradGradGradGradGradGradGrad
 Berny optimization.
 Initialization pass.
                       ----------------------------
                       !    Initial Parameters    !
                       ! (Angstroms and Degrees)  !
 ----------------------                            ----------------------
 !      Name          Value   Derivative information (Atomic Units)     !
 ------------------------------------------------------------------------
 !       R1          1.0922   estimate D2E/DX2                          !
 !       R2          1.0922   estimate D2E/DX2                          !
 !       A2        109.4712   estimate D2E/DX2                          !
 !       R3          1.0922   estimate D2E/DX2                          !
 !       A3        109.4712   estimate D2E/DX2                          !
 !       D3        120.0      estimate D2E/DX2                          !
 !       R4          1.0922   estimate D2E/DX2                          !
 !       A4        109.4712   estimate D2E/DX2                          !
 !       D4        240.0      estimate D2E/DX2                          !
 !       A6         85.0      estimate D2E/DX2                          !
 !       D6        180.0      estimate D2E/DX2                          !
 !       A5         90.0      Frozen                                    !
 !       D5        180.0      Frozen                                    !
 !       R5          1.0      Frozen                                    !
 !       R6          1.74     Frozen                                    !
 ------------------------------------------------------------------------
 Trust Radius=3.00D-01 FncErr=1.00D-07 GrdErr=1.00D-06
 Number of steps in this run=     25 maximum allowed number of steps=    100.
 GradGradGradGradGradGradGradGradGradGradGradGradGradGradGradGradGradGrad

 Leave Link  103 at Thu Sep  5 23:08:25 2019, MaxMem=  2684354560 cpu:         0.1
 (Enter /soft/gaussian/09-e.01/g09/l202.exe)
 ---------------------------------------------------------------------------------------------------
                            Z-MATRIX (ANGSTROMS AND DEGREES)
   CD    Cent   Atom    N1       Length/X        N2       Alpha/Y        N3        Beta/Z          J
 ---------------------------------------------------------------------------------------------------
      1      1  C 
      2      2  H        1   1.092201(     1)
      3      3  H        1   1.092201(     2)      2  109.471(     7)
      4      4  H        1   1.092201(     3)      2  109.471(     8)      3  120.000(    12)      0
      5      5  H        1   1.092201(     4)      2  109.471(     9)      3  240.000(    13)      0
      6         X        5   1.000000(     5)      1   90.000(    10)      2  180.000(    14)      0
      7      6  H        5   1.740000(     6)      6   85.000(    11)      1  180.000(    15)      0
 ---------------------------------------------------------------------------------------------------
                         Z-Matrix orientation:                         
 ---------------------------------------------------------------------
 Center     Atomic      Atomic             Coordinates (Angstroms)
 Number     Number       Type             X           Y           Z
 ---------------------------------------------------------------------
      1          6           0        0.000000    0.000000    0.000000
      2          1           0        0.000000    0.000000    1.092201
      3          1           0        1.029737    0.000000   -0.364067
      4          1           0       -0.514868   -0.891778   -0.364067
      5          1           0       -0.514868    0.891778   -0.364067
      6         -1           0       -0.348202    0.603103   -1.306876
      7          1           0       -1.306716    2.263298   -1.084838
 ---------------------------------------------------------------------
                    Distance matrix (angstroms):
                    1          2          3          4          5
     1  C    0.000000
     2  H    1.092201   0.000000
     3  H    1.092201   1.783557   0.000000
     4  H    1.092201   1.783557   1.783557   0.000000
     5  H    1.092201   1.783557   1.783557   1.783557   0.000000
     6  X    1.480845   2.498109   1.775201   1.775201   1.000000
     7  H    2.829646   3.401400   3.331823   3.331823   1.740000
                    6          7
     6  X    0.000000
     7  H    1.929844   0.000000
 This structure is nearly, but not quite of a higher symmetry.
 Consider Symm=Loose if the higher symmetry is desired.
 Stoichiometry    CH5(2)
 Framework group  CS[SG(CH3),X(H2)]
 Deg. of freedom     8
 Full point group                 CS      NOp   2
 Largest Abelian subgroup         CS      NOp   2
 Largest concise Abelian subgroup CS      NOp   2
                         Standard orientation:                         
 ---------------------------------------------------------------------
 Center     Atomic      Atomic             Coordinates (Angstroms)
 Number     Number       Type             X           Y           Z
 ---------------------------------------------------------------------
      1          6           0       -0.000000    0.257241    0.000000
      2          1           0        1.008745    0.675972   -0.000000
      3          1           0       -0.533640    0.593191    0.891778
      4          1           0       -0.533640    0.593191   -0.891778
      5          1           0        0.058535   -0.833391   -0.000000
      6          1           0        0.000000   -2.572406   -0.000000
 ---------------------------------------------------------------------
 Rotational constants (GHZ):    157.6370072     46.8020460     46.8020460
 Leave Link  202 at Thu Sep  5 23:08:26 2019, MaxMem=  2684354560 cpu:         9.4
 (Enter /soft/gaussian/09-e.01/g09/l301.exe)
 Standard basis: 6-31G(d) (6D, 7F)
 Ernie: Thresh=  0.10000D-02 Tol=  0.10000D-05 Strict=F.
 There are    19 symmetry adapted cartesian basis functions of A'  symmetry.
 There are     6 symmetry adapted cartesian basis functions of A"  symmetry.
 There are    19 symmetry adapted basis functions of A'  symmetry.
 There are     6 symmetry adapted basis functions of A"  symmetry.
    25 basis functions,    48 primitive gaussians,    25 cartesian basis functions
     6 alpha electrons        5 beta electrons
       nuclear repulsion energy        15.3077362935 Hartrees.
 IExCor=  402 DFT=T Ex+Corr=B3LYP ExCW=0 ScaHFX=  0.200000
 ScaDFX=  0.800000  0.720000  1.000000  0.810000 ScalE2=  1.000000  1.000000
 IRadAn=      5 IRanWt=     -1 IRanGd=            0 ICorTp=0 IEmpDi=  4
 NAtoms=    6 NActive=    6 NUniq=    5 SFac= 1.44D+00 NAtFMM=   60 NAOKFM=F Big=F
 Integral buffers will be    131072 words long.
 Raffenetti 2 integral format.
 Two-electron integral symmetry is turned on.
 Leave Link  301 at Thu Sep  5 23:08:26 2019, MaxMem=  2684354560 cpu:         0.6
 (Enter /soft/gaussian/09-e.01/g09/l302.exe)
 NPDir=0 NMtPBC=     1 NCelOv=     1 NCel=       1 NClECP=     1 NCelD=      1
         NCelK=      1 NCelE2=     1 NClLst=     1 CellRange=     0.0.
 One-electron integrals computed using PRISM.
 One-electron integral symmetry used in STVInt
 NBasis=    25 RedAO= T EigKep=  2.05D-02  NBF=    19     6
 NBsUse=    25 1.00D-06 EigRej= -1.00D+00 NBFU=    19     6
 Precomputing XC quadrature grid using
 IXCGrd= 4 IRadAn=           5 IRanWt=          -1 IRanGd=           0 AccXCQ= 0.00D+00.
 Generated NRdTot=       0 NPtTot=           0 NUsed=           0 NTot=          32
 NSgBfM=    25    25    25    25    25 MxSgAt=     6 MxSgA2=     6.
 Leave Link  302 at Thu Sep  5 23:08:26 2019, MaxMem=  2684354560 cpu:         1.5
 (Enter /soft/gaussian/09-e.01/g09/l303.exe)
 DipDrv:  MaxL=1.
 Leave Link  303 at Thu Sep  5 23:08:26 2019, MaxMem=  2684354560 cpu:         0.2
 (Enter /soft/gaussian/09-e.01/g09/l401.exe)
 ExpMin= 1.61D-01 ExpMax= 3.05D+03 ExpMxC= 4.57D+02 IAcc=3 IRadAn=         5 AccDes= 0.00D+00
 Harris functional with IExCor=  402 and IRadAn=       5 diagonalized for initial guess.
 HarFok:  IExCor=  402 AccDes= 0.00D+00 IRadAn=         5 IDoV= 1 UseB2=F ITyADJ=14
 ICtDFT=  3500011 ScaDFX=  1.000000  1.000000  1.000000  1.000000
 FoFCou: FMM=F IPFlag=           0 FMFlag=      100000 FMFlg1=           0
         NFxFlg=           0 DoJE=T BraDBF=F KetDBF=T FulRan=T
         wScrn=  0.000000 ICntrl=     500 IOpCl=  0 I1Cent=   200000004 NGrid=           0
         NMat0=    1 NMatS0=      1 NMatT0=    0 NMatD0=    1 NMtDS0=    0 NMtDT0=    0
 Petite list used in FoFCou.
 Harris En= -41.0214438471966    
 JPrj=0 DoOrth=F DoCkMO=F.
 Initial guess orbital symmetries:
 Alpha Orbitals:
       Occupied  (A') (A') (A') (A") (A') (A')
       Virtual   (A') (A') (A") (A') (A') (A") (A') (A') (A") (A')
                 (A') (A') (A') (A") (A') (A') (A") (A') (A')
 Beta  Orbitals:
       Occupied  (A') (A') (A') (A") (A')
       Virtual   (A') (A') (A') (A") (A') (A') (A") (A') (A') (A")
                 (A') (A') (A') (A') (A") (A') (A') (A") (A') (A')
 The electronic state of the initial guess is 2-A'.
 Initial guess <Sx>= 0.0000 <Sy>= 0.0000 <Sz>= 0.5000 <S**2>= 0.7500 S= 0.5000
 Leave Link  401 at Thu Sep  5 23:08:26 2019, MaxMem=  2684354560 cpu:         1.7
 (Enter /soft/gaussian/09-e.01/g09/l502.exe)
 UHF open shell SCF:
 Using DIIS extrapolation, IDIIS=  1040.
 Integral symmetry usage will be decided dynamically.
 Keep R1 and R2 ints in memory in symmetry-blocked form, NReq=929304.
 IVT=        8311 IEndB=        8311 NGot=  2684354560 MDV=  2684287457
 LenX=  2684287457 LenY=  2684286391
 Requested convergence on RMS density matrix=1.00D-08 within  64 cycles.
 Requested convergence on MAX density matrix=1.00D-06.
 Requested convergence on             energy=1.00D-06.
 No special actions if energy rises.
 FoFCou: FMM=F IPFlag=           0 FMFlag=           0 FMFlg1=           0
         NFxFlg=           0 DoJE=F BraDBF=F KetDBF=F FulRan=T
         wScrn=  0.000000 ICntrl=     600 IOpCl=  0 I1Cent=           0 NGrid=           0
         NMat0=    1 NMatS0=    325 NMatT0=    0 NMatD0=    1 NMtDS0=    0 NMtDT0=    0
 Petite list used in FoFCou.
 Integral accuracy reduced to 1.0D-05 until final iterations.

 Cycle   1  Pass 0  IDiag  1:
 E= -40.9208810792853    
 DIIS: error= 7.27D-02 at cycle   1 NSaved=   1.
 NSaved= 1 IEnMin= 1 EnMin= -40.9208810792853     IErMin= 1 ErrMin= 7.27D-02
 ErrMax= 7.27D-02  0.00D+00 EMaxC= 1.00D-01 BMatC= 3.47D-01 BMatP= 3.47D-01
 IDIUse=3 WtCom= 2.73D-01 WtEn= 7.27D-01
 Coeff-Com:  0.100D+01
 Coeff-En:   0.100D+01
 Coeff:      0.100D+01
 Gap=     0.440 Goal=   None    Shift=    0.000
 Gap=     0.169 Goal=   None    Shift=    0.000
 GapD=    0.169 DampG=1.000 DampE=0.500 DampFc=0.5000 IDamp=-1.
 Damping current iteration by 5.00D-01
 RMSDP=2.30D-02 MaxDP=1.64D-01              OVMax= 2.46D-01

 Cycle   2  Pass 0  IDiag  1:
 E= -40.9640301848108     Delta-E=       -0.043149105525 Rises=F Damp=T
 DIIS: error= 1.15D-02 at cycle   2 NSaved=   2.
 NSaved= 2 IEnMin= 2 EnMin= -40.9640301848108     IErMin= 2 ErrMin= 1.15D-02
 ErrMax= 1.15D-02  0.00D+00 EMaxC= 1.00D-01 BMatC= 8.89D-03 BMatP= 3.47D-01
 IDIUse=3 WtCom= 8.85D-01 WtEn= 1.15D-01
 Coeff-Com:  0.819D-01 0.918D+00
 Coeff-En:   0.130D+00 0.870D+00
 Coeff:      0.875D-01 0.913D+00
 Gap=     0.458 Goal=   None    Shift=    0.000
 Gap=     0.286 Goal=   None    Shift=    0.000
 RMSDP=3.07D-03 MaxDP=3.33D-02 DE=-4.31D-02 OVMax= 1.47D-01

 Cycle   3  Pass 0  IDiag  1:
 E= -41.0167862789826     Delta-E=       -0.052756094172 Rises=F Damp=F
 DIIS: error= 1.41D-03 at cycle   3 NSaved=   3.
 NSaved= 3 IEnMin= 3 EnMin= -41.0167862789826     IErMin= 3 ErrMin= 1.41D-03
 ErrMax= 1.41D-03  0.00D+00 EMaxC= 1.00D-01 BMatC= 6.32D-05 BMatP= 8.89D-03
 IDIUse=3 WtCom= 9.86D-01 WtEn= 1.41D-02
 Coeff-Com:  0.270D-02-0.452D-01 0.104D+01
 Coeff-En:   0.000D+00 0.000D+00 0.100D+01
 Coeff:      0.266D-02-0.446D-01 0.104D+01
 Gap=     0.425 Goal=   None    Shift=    0.000
 Gap=     0.308 Goal=   None    Shift=    0.000
 RMSDP=4.43D-04 MaxDP=5.16D-03 DE=-5.28D-02 OVMax= 9.29D-03

 Cycle   4  Pass 0  IDiag  1:
 E= -41.0168406968101     Delta-E=       -0.000054417828 Rises=F Damp=F
 DIIS: error= 2.57D-04 at cycle   4 NSaved=   4.
 NSaved= 4 IEnMin= 4 EnMin= -41.0168406968101     IErMin= 4 ErrMin= 2.57D-04
 ErrMax= 2.57D-04  0.00D+00 EMaxC= 1.00D-01 BMatC= 2.60D-06 BMatP= 6.32D-05
 IDIUse=3 WtCom= 9.97D-01 WtEn= 2.57D-03
 Coeff-Com: -0.246D-02 0.712D-02-0.219D+00 0.121D+01
 Coeff-En:   0.000D+00 0.000D+00 0.000D+00 0.100D+01
 Coeff:     -0.246D-02 0.710D-02-0.219D+00 0.121D+01
 Gap=     0.425 Goal=   None    Shift=    0.000
 Gap=     0.310 Goal=   None    Shift=    0.000
 RMSDP=9.20D-05 MaxDP=9.45D-04 DE=-5.44D-05 OVMax= 2.21D-03

 Cycle   5  Pass 0  IDiag  1:
 E= -41.0168430114248     Delta-E=       -0.000002314615 Rises=F Damp=F
 DIIS: error= 3.78D-05 at cycle   5 NSaved=   5.
 NSaved= 5 IEnMin= 5 EnMin= -41.0168430114248     IErMin= 5 ErrMin= 3.78D-05
 ErrMax= 3.78D-05  0.00D+00 EMaxC= 1.00D-01 BMatC= 7.00D-08 BMatP= 2.60D-06
 IDIUse=1 WtCom= 1.00D+00 WtEn= 0.00D+00
 Coeff-Com: -0.457D-03 0.155D-02-0.434D-01 0.136D+00 0.906D+00
 Coeff:     -0.457D-03 0.155D-02-0.434D-01 0.136D+00 0.906D+00
 Gap=     0.425 Goal=   None    Shift=    0.000
 Gap=     0.310 Goal=   None    Shift=    0.000
 RMSDP=7.23D-06 MaxDP=5.99D-05 DE=-2.31D-06 OVMax= 1.35D-04

 Initial convergence to 1.0D-05 achieved.  Increase integral accuracy.
 Cycle   6  Pass 1  IDiag  1:
 E= -41.0168416026193     Delta-E=        0.000001408806 Rises=F Damp=F
 DIIS: error= 1.01D-05 at cycle   1 NSaved=   1.
 NSaved= 1 IEnMin= 1 EnMin= -41.0168416026193     IErMin= 1 ErrMin= 1.01D-05
 ErrMax= 1.01D-05  0.00D+00 EMaxC= 1.00D-01 BMatC= 3.95D-09 BMatP= 3.95D-09
 IDIUse=1 WtCom= 1.00D+00 WtEn= 0.00D+00
 Coeff-Com:  0.100D+01
 Coeff:      0.100D+01
 Gap=     0.425 Goal=   None    Shift=    0.000
 Gap=     0.310 Goal=   None    Shift=    0.000
 RMSDP=7.23D-06 MaxDP=5.99D-05 DE= 1.41D-06 OVMax= 2.89D-05

 Cycle   7  Pass 1  IDiag  1:
 E= -41.0168416042377     Delta-E=       -0.000000001618 Rises=F Damp=F
 DIIS: error= 4.07D-06 at cycle   2 NSaved=   2.
 NSaved= 2 IEnMin= 2 EnMin= -41.0168416042377     IErMin= 2 ErrMin= 4.07D-06
 ErrMax= 4.07D-06  0.00D+00 EMaxC= 1.00D-01 BMatC= 6.87D-10 BMatP= 3.95D-09
 IDIUse=1 WtCom= 1.00D+00 WtEn= 0.00D+00
 Coeff-Com:  0.200D+00 0.800D+00
 Coeff:      0.200D+00 0.800D+00
 Gap=     0.425 Goal=   None    Shift=    0.000
 Gap=     0.310 Goal=   None    Shift=    0.000
 RMSDP=6.83D-07 MaxDP=5.46D-06 DE=-1.62D-09 OVMax= 9.25D-06

 Cycle   8  Pass 1  IDiag  1:
 E= -41.0168416044947     Delta-E=       -0.000000000257 Rises=F Damp=F
 DIIS: error= 1.30D-06 at cycle   3 NSaved=   3.
 NSaved= 3 IEnMin= 3 EnMin= -41.0168416044947     IErMin= 3 ErrMin= 1.30D-06
 ErrMax= 1.30D-06  0.00D+00 EMaxC= 1.00D-01 BMatC= 9.90D-11 BMatP= 6.87D-10
 IDIUse=1 WtCom= 1.00D+00 WtEn= 0.00D+00
 Coeff-Com: -0.124D+00-0.169D-01 0.114D+01
 Coeff:     -0.124D+00-0.169D-01 0.114D+01
 Gap=     0.425 Goal=   None    Shift=    0.000
 Gap=     0.310 Goal=   None    Shift=    0.000
 RMSDP=4.09D-07 MaxDP=3.67D-06 DE=-2.57D-10 OVMax= 5.08D-06

 Cycle   9  Pass 1  IDiag  1:
 E= -41.0168416045437     Delta-E=       -0.000000000049 Rises=F Damp=F
 DIIS: error= 9.69D-07 at cycle   4 NSaved=   4.
 NSaved= 4 IEnMin= 4 EnMin= -41.0168416045437     IErMin= 4 ErrMin= 9.69D-07
 ErrMax= 9.69D-07  0.00D+00 EMaxC= 1.00D-01 BMatC= 4.89D-11 BMatP= 9.90D-11
 IDIUse=1 WtCom= 1.00D+00 WtEn= 0.00D+00
 Coeff-Com: -0.917D-01-0.107D+00 0.618D+00 0.580D+00
 Coeff:     -0.917D-01-0.107D+00 0.618D+00 0.580D+00
 Gap=     0.425 Goal=   None    Shift=    0.000
 Gap=     0.310 Goal=   None    Shift=    0.000
 RMSDP=1.41D-07 MaxDP=1.41D-06 DE=-4.90D-11 OVMax= 1.80D-06

 Cycle  10  Pass 1  IDiag  1:
 E= -41.0168416045581     Delta-E=       -0.000000000014 Rises=F Damp=F
 DIIS: error= 8.87D-08 at cycle   5 NSaved=   5.
 NSaved= 5 IEnMin= 5 EnMin= -41.0168416045581     IErMin= 5 ErrMin= 8.87D-08
 ErrMax= 8.87D-08  0.00D+00 EMaxC= 1.00D-01 BMatC= 4.56D-13 BMatP= 4.89D-11
 IDIUse=1 WtCom= 1.00D+00 WtEn= 0.00D+00
 Coeff-Com:  0.290D-01 0.228D-01-0.226D+00-0.130D+00 0.130D+01
 Coeff:      0.290D-01 0.228D-01-0.226D+00-0.130D+00 0.130D+01
 Gap=     0.425 Goal=   None    Shift=    0.000
 Gap=     0.310 Goal=   None    Shift=    0.000
 RMSDP=3.88D-08 MaxDP=3.00D-07 DE=-1.43D-11 OVMax= 4.75D-07

 Cycle  11  Pass 1  IDiag  1:
 E= -41.0168416045584     Delta-E=       -0.000000000000 Rises=F Damp=F
 DIIS: error= 4.12D-09 at cycle   6 NSaved=   6.
 NSaved= 6 IEnMin= 6 EnMin= -41.0168416045584     IErMin= 6 ErrMin= 4.12D-09
 ErrMax= 4.12D-09  0.00D+00 EMaxC= 1.00D-01 BMatC= 1.61D-15 BMatP= 4.56D-13
 IDIUse=1 WtCom= 1.00D+00 WtEn= 0.00D+00
 Coeff-Com: -0.280D-02-0.194D-02 0.233D-01 0.939D-02-0.162D+00 0.113D+01
 Coeff:     -0.280D-02-0.194D-02 0.233D-01 0.939D-02-0.162D+00 0.113D+01
 Gap=     0.425 Goal=   None    Shift=    0.000
 Gap=     0.310 Goal=   None    Shift=    0.000
 RMSDP=2.35D-09 MaxDP=2.74D-08 DE=-3.48D-13 OVMax= 3.14D-08

 SCF Done:  E(UB3LYP) =  -41.0168416046     A.U. after   11 cycles
            NFock= 11  Conv=0.24D-08     -V/T= 2.0101
 <Sx>= 0.0000 <Sy>= 0.0000 <Sz>= 0.5000 <S**2>= 0.7507 S= 0.5003
 <L.S>= 0.000000000000E+00
 KE= 4.060644789040D+01 PE=-1.246611651430D+02 EE= 2.773013935459D+01
 Annihilation of the first spin contaminant:
 S**2 before annihilation     0.7507,   after     0.7500
 Leave Link  502 at Thu Sep  5 23:08:28 2019, MaxMem=  2684354560 cpu:         5.0
 (Enter /soft/gaussian/09-e.01/g09/l508.exe)
 QCSCF skips out because SCF is already converged.
 Leave Link  508 at Thu Sep  5 23:08:28 2019, MaxMem=  2684354560 cpu:         0.0
 (Enter /soft/gaussian/09-e.01/g09/l601.exe)
 Copying SCF densities to generalized density rwf, IOpCl= 1 IROHF=0.

 **********************************************************************

            Population analysis using the SCF density.

 **********************************************************************

 Orbital symmetries:
 Alpha Orbitals:
       Occupied  (A') (A') (A') (A') (A") (A')
       Virtual   (A') (A') (A") (A') (A') (A') (A") (A') (A') (A")
                 (A') (A') (A') (A") (A') (A') (A") (A') (A')
 Beta  Orbitals:
       Occupied  (A') (A') (A') (A") (A')
       Virtual   (A') (A') (A') (A") (A') (A") (A') (A') (A') (A")
                 (A') (A') (A') (A') (A") (A') (A") (A') (A') (A')
 The electronic state is 2-A'.
 Alpha  occ. eigenvalues --  -10.16798  -0.69442  -0.40887  -0.39108  -0.39106
 Alpha  occ. eigenvalues --   -0.29957
 Alpha virt. eigenvalues --    0.12590   0.17529   0.17532   0.22184   0.53027
 Alpha virt. eigenvalues --    0.53153   0.53155   0.75977   0.89667   0.89672
 Alpha virt. eigenvalues --    0.93701   0.96994   1.14682   1.65271   1.65280
 Alpha virt. eigenvalues --    2.24107   2.24241   2.24245   4.20017
  Beta  occ. eigenvalues --  -10.16670  -0.69126  -0.39418  -0.39028  -0.39026
  Beta virt. eigenvalues --   -0.08022   0.12846   0.17601   0.17604   0.23726
  Beta virt. eigenvalues --    0.53142   0.53143   0.53811   0.89775   0.89775
  Beta virt. eigenvalues --    0.92758   0.93893   0.97581   1.15198   1.65638
  Beta virt. eigenvalues --    1.65641   2.24450   2.24453   2.24520   4.20297
          Condensed to atoms (all electrons):
               1          2          3          4          5          6
     1  C    5.107622   0.382686   0.383467   0.383467   0.373566  -0.017637
     2  H    0.382686   0.538166  -0.026481  -0.026481  -0.026796   0.000508
     3  H    0.383467  -0.026481   0.538030  -0.026500  -0.027498   0.000537
     4  H    0.383467  -0.026481  -0.026500   0.538030  -0.027498   0.000537
     5  H    0.373566  -0.026796  -0.027498  -0.027498   0.556113   0.014286
     6  H   -0.017637   0.000508   0.000537   0.000537   0.014286   1.001712
          Atomic-Atomic Spin Densities.
               1          2          3          4          5          6
     1  C    0.096558  -0.004346  -0.003916  -0.003916   0.009196  -0.024071
     2  H   -0.004346   0.000948   0.000747   0.000747   0.000940   0.000851
     3  H   -0.003916   0.000747  -0.000050   0.000669   0.000987   0.000869
     4  H   -0.003916   0.000747   0.000669  -0.000050   0.000987   0.000869
     5  H    0.009196   0.000940   0.000987   0.000987  -0.035683  -0.006079
     6  H   -0.024071   0.000851   0.000869   0.000869  -0.006079   0.989209
 Mulliken charges and spin densities:
               1          2
     1  C   -0.613171   0.069505
     2  H    0.158398  -0.000112
     3  H    0.158444  -0.000694
     4  H    0.158444  -0.000694
     5  H    0.137827  -0.029652
     6  H    0.000057   0.961648
 Sum of Mulliken charges =  -0.00000   1.00000
 Mulliken charges and spin densities with hydrogens summed into heavy atoms:
               1          2
     1  C   -0.000000   1.000000
 Electronic spatial extent (au):  <R**2>=             64.4486
 Charge=             -0.0000 electrons
 Dipole moment (field-independent basis, Debye):
    X=             -0.0023    Y=              0.0996    Z=              0.0000  Tot=              0.0996
 Quadrupole moment (field-independent basis, Debye-Ang):
   XX=             -9.5168   YY=             -9.7705   ZZ=             -9.5167
   XY=              0.0043   XZ=              0.0000   YZ=             -0.0000
 Traceless Quadrupole moment (field-independent basis, Debye-Ang):
   XX=              0.0845   YY=             -0.1692   ZZ=              0.0846
   XY=              0.0043   XZ=              0.0000   YZ=             -0.0000
 Octapole moment (field-independent basis, Debye-Ang**2):
  XXX=              0.4830  YYY=              3.4701  ZZZ=              0.0000  XYY=              0.0729
  XXY=              1.6007  XXZ=             -0.0000  XZZ=             -0.5710  YZZ=              1.5471
  YYZ=             -0.0000  XYZ=             -0.0000
 Hexadecapole moment (field-independent basis, Debye-Ang**3):
 XXXX=            -16.4733 YYYY=            -72.8601 ZZZZ=            -16.4017 XXXY=              0.4764
 XXXZ=              0.0000 YYYX=              0.0421 YYYZ=             -0.0000 ZZZX=              0.0000
 ZZZY=             -0.0000 XXYY=            -14.5001 XXZZ=             -5.4342 YYZZ=            -14.5978
 XXYZ=             -0.0000 YYXZ=              0.0000 ZZXY=             -0.4466
 N-N= 1.530773629350D+01 E-N=-1.246611651836D+02  KE= 4.060644789040D+01
 Symmetry A'   KE= 3.867774022001D+01
 Symmetry A"   KE= 1.928707670392D+00
                          Isotropic Fermi Contact Couplings
        Atom                 a.u.       MegaHertz       Gauss      10(-4) cm-1
     1  C(13)              0.03130      35.18725      12.55568      11.73720
     2  H(1)              -0.00015      -0.66686      -0.23795      -0.22244
     3  H(1)              -0.00041      -1.82257      -0.65034      -0.60795
     4  H(1)              -0.00041      -1.82257      -0.65034      -0.60795
     5  H(1)              -0.00091      -4.06719      -1.45127      -1.35667
     6  H(1)               0.29867    1335.01144     476.36526     445.31188
 --------------------------------------------------------
       Center         ----  Spin Dipole Couplings  ----
                      3XX-RR        3YY-RR        3ZZ-RR
 --------------------------------------------------------
     1   Atom       -0.046135      0.092260     -0.046125
     2   Atom        0.001802      0.005834     -0.007636
     3   Atom       -0.005221      0.005824     -0.000604
     4   Atom       -0.005221      0.005824     -0.000604
     5   Atom       -0.035578      0.071279     -0.035701
     6   Atom        0.001912     -0.003829      0.001917
 --------------------------------------------------------
                        XY            XZ            YZ
 --------------------------------------------------------
     1   Atom       -0.004660      0.000000     -0.000000
     2   Atom        0.005582     -0.000000      0.000000
     3   Atom       -0.003049     -0.004352      0.004854
     4   Atom       -0.003049      0.004352     -0.004854
     5   Atom        0.000299     -0.000000      0.000000
     6   Atom       -0.000133     -0.000000      0.000000
 --------------------------------------------------------


 ---------------------------------------------------------------------------------
              Anisotropic Spin Dipole Couplings in Principal Axis System
 ---------------------------------------------------------------------------------

       Atom             a.u.   MegaHertz   Gauss  10(-4) cm-1        Axes

              Baa    -0.0463    -6.212    -2.217    -2.072  0.9994  0.0336 -0.0000
     1 C(13)  Bbb    -0.0461    -6.190    -2.209    -2.065  0.0000  0.0000  1.0000
              Bcc     0.0924    12.401     4.425     4.137 -0.0336  0.9994 -0.0000
 
              Baa    -0.0076    -4.074    -1.454    -1.359  0.0000 -0.0000  1.0000
     2 H(1)   Bbb    -0.0021    -1.129    -0.403    -0.377  0.8184 -0.5746 -0.0000
              Bcc     0.0098     5.204     1.857     1.736  0.5746  0.8184 -0.0000
 
              Baa    -0.0078    -4.183    -1.493    -1.395  0.8601  0.0108  0.5101
     3 H(1)   Bbb    -0.0021    -1.131    -0.403    -0.377 -0.4083 -0.5850  0.7008
              Bcc     0.0100     5.314     1.896     1.772 -0.3059  0.8110  0.4987
 
              Baa    -0.0078    -4.183    -1.493    -1.395  0.8601  0.0108 -0.5101
     4 H(1)   Bbb    -0.0021    -1.131    -0.403    -0.377  0.4083  0.5850  0.7008
              Bcc     0.0100     5.314     1.896     1.772 -0.3059  0.8110 -0.4987
 
              Baa    -0.0357   -19.048    -6.797    -6.354  0.0000 -0.0000  1.0000
     5 H(1)   Bbb    -0.0356   -18.983    -6.774    -6.332  1.0000 -0.0028 -0.0000
              Bcc     0.0713    38.031    13.571    12.686  0.0028  1.0000  0.0000
 
              Baa    -0.0038    -2.045    -0.730    -0.682  0.0231  0.9997 -0.0000
     6 H(1)   Bbb     0.0019     1.022     0.365     0.341  0.9997 -0.0231  0.0000
              Bcc     0.0019     1.023     0.365     0.341 -0.0000  0.0000  1.0000
 

 ---------------------------------------------------------------------------------

 No NMR shielding tensors so no spin-rotation constants.
 Leave Link  601 at Thu Sep  5 23:08:29 2019, MaxMem=  2684354560 cpu:         3.2
 (Enter /soft/gaussian/09-e.01/g09/l701.exe)
 Compute integral first derivatives.
 ... and contract with generalized density number  0.
 Leave Link  701 at Thu Sep  5 23:08:29 2019, MaxMem=  2684354560 cpu:         1.6
 (Enter /soft/gaussian/09-e.01/g09/l702.exe)
 L702 exits ... SP integral derivatives will be done elsewhere.
 Leave Link  702 at Thu Sep  5 23:08:29 2019, MaxMem=  2684354560 cpu:         0.1
 (Enter /soft/gaussian/09-e.01/g09/l703.exe)
 Compute integral first derivatives, UseDBF=F ICtDFT=           0.
 Integral derivatives from FoFJK, PRISM(SPDF).
 Calling FoFJK, ICntrl=      2127 FMM=F ISym2X=1 I1Cent= 0 IOpClX= 1 NMat=1 NMatS=1 NMatT=0.
 FoFJK:  IHMeth= 1 ICntrl=    2127 DoSepK=F KAlg= 0 I1Cent=   0 FoldK=F
 IRaf=         0 NMat=   1 IRICut=       1 DoRegI=T DoRafI=F ISym2E= 1.
 FoFCou: FMM=F IPFlag=           0 FMFlag=      100000 FMFlg1=         800
         NFxFlg=           0 DoJE=F BraDBF=F KetDBF=F FulRan=T
         wScrn=  0.000000 ICntrl=    2127 IOpCl=  1 I1Cent=           0 NGrid=           0
         NMat0=    1 NMatS0=      1 NMatT0=    0 NMatD0=    1 NMtDS0=    0 NMtDT0=    0
 Petite list used in FoFCou.
 Leave Link  703 at Thu Sep  5 23:08:29 2019, MaxMem=  2684354560 cpu:         2.0
 (Enter /soft/gaussian/09-e.01/g09/l716.exe)
 Dipole        =-9.16354719D-04 3.91917973D-02 9.22393783D-17
 ***** Axes restored to original set *****
 -------------------------------------------------------------------
 Center     Atomic                   Forces (Hartrees/Bohr)
 Number     Number              X              Y              Z
 -------------------------------------------------------------------
      1        6           0.002818494   -0.004881775    0.002202966
      2        1          -0.000188985    0.000327332    0.000845565
      3        1           0.000684997    0.000361168   -0.000474891
      4        1          -0.000655279   -0.000412641   -0.000474891
      5        1          -0.000918412    0.001590737   -0.000621520
      6        1          -0.001740815    0.003015179   -0.001477230
 -------------------------------------------------------------------
 Cartesian Forces:  Max     0.004881775 RMS     0.001782649
 -----------------------------------------------------------------------------------------------
                       Internal Coordinate Forces (Hartree/Bohr or radian)
  Cent   Atom   N1       Length/X         N2         Alpha/Y        N3         Beta/Z          J
 -----------------------------------------------------------------------------------------------
      1  C 
      2  H        1   0.000846(     1)
      3  H        1   0.000804(     2)      2   0.000453(     7)
      4  H        1   0.000804(     3)      2   0.000453(     8)      3   0.000703(    12)     0
      5  H        1   0.005714(     4)      2   0.000104(     9)      3   0.000000(    13)     0
         X        5  -0.000000(     5)      1   0.000321(    10)      2   0.000000(    14)     0
      6  H        5   0.003781(     6)      6   0.000321(    11)      1   0.000000(    15)     0
 -----------------------------------------------------------------------------------------------
 Internal  Forces:  Max     0.005713870 RMS     0.001827057
 Force constants in Cartesian coordinates: 
                1             2             3             4             5 
      1  0.825227D+00
      2  0.904475D-01  0.720787D+00
      3 -0.615639D-02  0.106632D-01  0.699040D+00
      4 -0.719808D-01  0.248364D-02  0.000000D+00  0.572310D-01
      5  0.248364D-02 -0.748487D-01  0.000000D+00  0.263014D-03  0.569273D-01
      6  0.000000D+00  0.000000D+00 -0.345595D+00  0.000000D+00  0.000000D+00
      7 -0.317375D+00 -0.106167D-02  0.844459D-01  0.125683D-01  0.000000D+00
      8 -0.295122D-02 -0.781215D-01 -0.330629D-03  0.000000D+00  0.436532D-03
      9  0.798174D-01 -0.300286D-02 -0.106746D+00  0.355484D-01  0.000000D+00
     10 -0.139673D+00 -0.105548D+00 -0.419366D-01  0.346946D-02  0.525319D-02
     11 -0.103658D+00 -0.255824D+00 -0.732976D-01  0.525319D-02  0.953533D-02
     12 -0.373082D-01 -0.706254D-01 -0.106746D+00 -0.177742D-01 -0.307858D-01
     13 -0.397015D+00 -0.426487D-01 -0.317491D-01 -0.438117D-02 -0.978576D-02
     14 -0.426487D-01 -0.347768D+00  0.549911D-01 -0.978576D-02  0.691845D-02
     15 -0.327765D-01  0.567706D-01 -0.160183D+00 -0.177742D-01  0.307858D-01
     16  0.100817D+00  0.563272D-01 -0.460375D-02  0.309328D-02  0.178591D-02
     17  0.563272D-01  0.357758D-01  0.797394D-02  0.178591D-02  0.103109D-02
     18 -0.357636D-02  0.619444D-02  0.202310D-01  0.000000D+00  0.000000D+00
                6             7             8             9            10 
      6  0.345595D+00
      7  0.000000D+00  0.313555D+00
      8  0.000000D+00  0.876712D-04  0.569273D-01
      9  0.000000D+00 -0.906241D-01  0.247972D-03  0.892715D-01
     10  0.000000D+00 -0.520040D-02 -0.272741D-01 -0.147089D-01  0.121160D+00
     11  0.000000D+00  0.175106D-02  0.953533D-02  0.495276D-02  0.111167D+00
     12  0.000000D+00  0.306526D-02  0.152147D-01  0.866986D-02  0.450973D-01
     13  0.000000D+00 -0.251603D-02  0.319235D-01 -0.711641D-02  0.223057D-01
     14  0.000000D+00 -0.181761D-03  0.122534D-01 -0.514099D-03  0.175927D-01
     15  0.000000D+00  0.311298D-02 -0.151320D-01  0.880484D-02  0.115482D-01
     16  0.000000D+00 -0.103109D-02 -0.178591D-02 -0.291638D-02 -0.206219D-02
     17  0.000000D+00 -0.595303D-03 -0.103109D-02 -0.168377D-02 -0.119061D-02
     18  0.000000D+00  0.000000D+00  0.000000D+00  0.000000D+00  0.000000D+00
               11            12            13            14            15 
     11  0.249322D+00
     12  0.786068D-01  0.892715D-01
     13 -0.145126D-01  0.400343D-02  0.554219D+00
     14 -0.125683D-01  0.590594D-02  0.112516D+00  0.424297D+00
     15 -0.102619D-01  0.880484D-02  0.359139D-01 -0.622047D-01  0.181816D+00
     16  0.000000D+00  0.291638D-02 -0.172613D+00 -0.774923D-01 -0.244164D-04
     17  0.000000D+00  0.168377D-02 -0.774923D-01 -0.831325D-01  0.422904D-04
     18  0.000000D+00  0.000000D+00 -0.105181D-02  0.182179D-02 -0.392424D-01
               16            17            18 
     16  0.717961D-01
     17  0.211651D-01  0.473567D-01
     18  0.462817D-02 -0.801623D-02  0.190115D-01
 Force constants in internal coordinates: 
                1             2             3             4             5 
      1  0.345595D+00
      2  0.000000D+00  0.345595D+00
      3  0.000000D+00  0.000000D+00  0.345595D+00
      4  0.000000D+00  0.000000D+00  0.000000D+00  0.345595D+00
      5  0.000000D+00  0.000000D+00  0.000000D+00  0.000000D+00  0.000000D+00
      6  0.000000D+00  0.000000D+00  0.000000D+00  0.000000D+00  0.000000D+00
      7  0.000000D+00  0.000000D+00  0.000000D+00  0.000000D+00  0.000000D+00
      8  0.000000D+00  0.000000D+00  0.000000D+00  0.000000D+00  0.000000D+00
      9  0.000000D+00  0.000000D+00  0.000000D+00  0.000000D+00  0.000000D+00
     10  0.000000D+00  0.000000D+00  0.000000D+00  0.000000D+00  0.000000D+00
     11  0.000000D+00  0.000000D+00  0.000000D+00  0.000000D+00  0.000000D+00
     12  0.000000D+00  0.000000D+00  0.000000D+00  0.000000D+00  0.000000D+00
     13  0.000000D+00  0.000000D+00  0.000000D+00  0.000000D+00  0.000000D+00
     14  0.000000D+00  0.000000D+00  0.000000D+00  0.000000D+00  0.000000D+00
     15  0.000000D+00  0.000000D+00  0.000000D+00  0.000000D+00  0.000000D+00
                6             7             8             9            10 
      6  0.393497D-01
      7  0.000000D+00  0.243800D+00
      8  0.000000D+00  0.415497D-01  0.243800D+00
      9  0.000000D+00  0.421965D-01  0.421965D-01  0.242291D+00
     10  0.000000D+00  0.000000D+00  0.000000D+00  0.000000D+00  0.160000D+00
     11  0.000000D+00  0.000000D+00  0.000000D+00  0.000000D+00  0.160000D+00
     12  0.000000D+00 -0.648136D-01 -0.105634D-02  0.644615D-01  0.000000D+00
     13  0.000000D+00  0.637573D-01 -0.637573D-01  0.000000D+00  0.000000D+00
     14  0.000000D+00 -0.211268D-02  0.211268D-02  0.000000D+00  0.000000D+00
     15  0.000000D+00 -0.241481D-01  0.241481D-01  0.000000D+00  0.000000D+00
               11            12            13            14            15 
     11  0.160000D+00
     12  0.000000D+00  0.215561D+00
     13  0.000000D+00 -0.108068D+00  0.216136D+00
     14  0.000000D+00 -0.115000D-02  0.230000D-02  0.690000D-02
     15  0.000000D+00 -0.131446D-01  0.262891D-01  0.788674D-01  0.901458D+00
 Leave Link  716 at Thu Sep  5 23:08:29 2019, MaxMem=  2684354560 cpu:         0.2
 (Enter /soft/gaussian/09-e.01/g09/l103.exe)

 GradGradGradGradGradGradGradGradGradGradGradGradGradGradGradGradGradGrad
 Berny optimization.
 Search for a local minimum.
 Step number   1 out of a maximum of   25
 All quantities printed in internal units (Hartrees-Bohrs-Radians)
 Second derivative matrix not updated -- first step.
 The second derivative matrix:
                          R1        R2        A2        R3        A3
           R1           0.34560
           R2          -0.00000   0.34560
           A2          -0.00000   0.00000   0.24380
           R3          -0.00000   0.00000  -0.00000   0.34560
           A3          -0.00000  -0.00000   0.04155   0.00000   0.24380
           D3           0.00000   0.00000  -0.06481  -0.00000  -0.00106
           R4           0.00000  -0.00000  -0.00000  -0.00000  -0.00000
           A4           0.00000   0.00000   0.04220   0.00000   0.04220
           D4          -0.00000   0.00000   0.06376  -0.00000  -0.06376
           A6          -0.00000  -0.00000  -0.00000   0.00000  -0.00000
           D6          -0.00000   0.00000  -0.02415  -0.00000   0.02415
           A5          -0.00000   0.00000  -0.00000   0.00000  -0.00000
           D5          -0.00000  -0.00000  -0.00211  -0.00000   0.00211
           R5          -0.00000  -0.00000  -0.00000  -0.00000  -0.00000
           R6          -0.00000   0.00000  -0.00000   0.00000  -0.00000
                          D3        R4        A4        D4        A6
           D3           0.21556
           R4          -0.00000   0.34560
           A4           0.06446   0.00000   0.24229
           D4          -0.10807  -0.00000  -0.00000   0.21614
           A6          -0.00000  -0.00000   0.00000   0.00000   0.16000
           D6          -0.01314   0.00000  -0.00000   0.02629   0.00000
           A5          -0.00000  -0.00000   0.00000   0.00000   0.16000
           D5          -0.00115  -0.00000  -0.00000   0.00230  -0.00000
           R5          -0.00000  -0.00000  -0.00000  -0.00000   0.00000
           R6          -0.00000   0.00000  -0.00000   0.00000  -0.00000
                          D6        A5        D5        R5        R6
           D6           0.90146
           A5           0.00000   0.16000
           D5           0.07887  -0.00000   0.00690
           R5           0.00000   0.00000   0.00000   0.00000
           R6          -0.00000   0.00000  -0.00000  -0.00000   0.03935
 ITU=  0
     Eigenvalues ---    0.07436   0.13417   0.16000   0.23378   0.32726
     Eigenvalues ---    0.34560   0.34560   0.34560   0.34560   0.38934
     Eigenvalues ---    0.904151000.000001000.000001000.000001000.00000
 RFO step:  Lambda=-1.07464532D-04 EMin= 7.43553518D-02
 Linear search not attempted -- first point.
 Variable       Old X    -DE/DX   Delta X   Delta X   Delta X     New X
                                 (Linear)    (Quad)   (Total)
    R1        2.06396   0.00085   0.00000   0.00245   0.00245   2.06641
    R2        2.06396   0.00080   0.00000   0.00233   0.00233   2.06629
    A2        1.91063   0.00045   0.00000   0.00263   0.00263   1.91326
    R3        2.06396   0.00080   0.00000   0.00233   0.00233   2.06629
    A3        1.91063   0.00045   0.00000   0.00263   0.00263   1.91326
    D3        2.09440   0.00070   0.00000   0.00628   0.00628   2.10067
    R4        2.06396   0.00571   0.00000   0.01653   0.01653   2.08049
    A4        1.91063   0.00010   0.00000  -0.00216  -0.00216   1.90848
    D4        4.18879   0.00000   0.00000   0.00314   0.00314   4.19193
    A6        1.48353   0.00032   0.00000   0.00201   0.00201   1.48554
    D6        3.14159   0.00000   0.00000   0.00000   0.00000   3.14159
    A5        1.57080   0.00032   0.00000   0.00000   0.00000   1.57080
    D5        3.14159   0.00000   0.00000   0.00000   0.00000   3.14159
    R5        1.88973  -0.00000   0.00000   0.00000   0.00000   1.88973
    R6        3.28812   0.00378   0.00000   0.00000   0.00000   3.28812
         Item               Value     Threshold  Converged?
 Maximum Force            0.005714     0.000450     NO 
 RMS     Force            0.001801     0.000300     NO 
 Maximum Displacement     0.016528     0.001800     NO 
 RMS     Displacement     0.004911     0.001200     NO 
 Predicted change in Energy=-5.375171D-05
 Lowest energy point so far.  Saving SCF results.
 GradGradGradGradGradGradGradGradGradGradGradGradGradGradGradGradGradGrad

 Leave Link  103 at Thu Sep  5 23:08:29 2019, MaxMem=  2684354560 cpu:         0.1
 (Enter /soft/gaussian/09-e.01/g09/l202.exe)
 ---------------------------------------------------------------------------------------------------
                            Z-MATRIX (ANGSTROMS AND DEGREES)
   CD    Cent   Atom    N1       Length/X        N2       Alpha/Y        N3        Beta/Z          J
 ---------------------------------------------------------------------------------------------------
      1      1  C 
      2      2  H        1   1.093495(     1)
      3      3  H        1   1.093432(     2)      2  109.622(     7)
      4      4  H        1   1.093432(     3)      2  109.622(     8)      3  120.360(    12)      0
      5      5  H        1   1.100947(     4)      2  109.348(     9)      3  240.180(    13)      0
      6         X        5   1.000000(     5)      1   90.000(    10)      2  180.000(    14)      0
      7      6  H        5   1.740000(     6)      6   85.115(    11)      1  180.000(    15)      0
 ---------------------------------------------------------------------------------------------------
                         Z-Matrix orientation:                         
 ---------------------------------------------------------------------
 Center     Atomic      Atomic             Coordinates (Angstroms)
 Number     Number       Type             X           Y           Z
 ---------------------------------------------------------------------
      1          6           0        0.000000    0.000000    0.000000
      2          1           0        0.000000    0.000000    1.093495
      3          1           0        1.029935    0.000000   -0.367188
      4          1           0       -0.520558   -0.888699   -0.367186
      5          1           0       -0.516561    0.901228   -0.364742
      6         -1           0       -0.351813    0.613797   -1.308268
      7          1           0       -1.305587    2.277818   -1.078913
 ---------------------------------------------------------------------
                    Distance matrix (angstroms):
                    1          2          3          4          5
     1  C    0.000000
     2  H    1.093495   0.000000
     3  H    1.093432   1.787278   0.000000
     4  H    1.093432   1.787277   1.787125   0.000000
     5  H    1.100947   1.790393   1.789936   1.789934   0.000000
     6  X    1.487308   2.503795   1.780901   1.780900   1.000000
     7  H    2.838497   3.407693   3.339112   3.339110   1.740000
                    6          7
     6  X    0.000000
     7  H    1.931645   0.000000
 Stoichiometry    CH5(2)
 Framework group  C1[X(CH5)]
 Deg. of freedom    12
 Full point group                 C1      NOp   1
 Omega: Change in point group or standard orientation.

 Old FWG=CS   [SG(C1H3),X(H2)]
 New FWG=C01  [X(C1H5)]
 RotChk:  IX=2 Diff= 2.00D+00
 Largest Abelian subgroup         C1      NOp   1
 Largest concise Abelian subgroup C1      NOp   1
                         Standard orientation:                         
 ---------------------------------------------------------------------
 Center     Atomic      Atomic             Coordinates (Angstroms)
 Number     Number       Type             X           Y           Z
 ---------------------------------------------------------------------
      1          6           0       -0.259454   -0.000033    0.000000
      2          1           0       -0.675118    1.011375    0.002722
      3          1           0       -0.593598   -0.536748    0.892121
      4          1           0       -0.593595   -0.531936   -0.894998
      5          1           0        0.839991    0.057467    0.000155
      6          1           0        2.579043    0.000042    0.000001
 ---------------------------------------------------------------------
 Rotational constants (GHZ):    156.9919472     46.5298705     46.5284512
 Leave Link  202 at Thu Sep  5 23:08:29 2019, MaxMem=  2684354560 cpu:         0.1
 (Enter /soft/gaussian/09-e.01/g09/l301.exe)
 Standard basis: 6-31G(d) (6D, 7F)
 Ernie: Thresh=  0.10000D-02 Tol=  0.10000D-05 Strict=F.
 There are    25 symmetry adapted cartesian basis functions of A   symmetry.
 There are    25 symmetry adapted basis functions of A   symmetry.
    25 basis functions,    48 primitive gaussians,    25 cartesian basis functions
     6 alpha electrons        5 beta electrons
       nuclear repulsion energy        15.2651015170 Hartrees.
 IExCor=  402 DFT=T Ex+Corr=B3LYP ExCW=0 ScaHFX=  0.200000
 ScaDFX=  0.800000  0.720000  1.000000  0.810000 ScalE2=  1.000000  1.000000
 IRadAn=      5 IRanWt=     -1 IRanGd=            0 ICorTp=0 IEmpDi=  4
 NAtoms=    6 NActive=    6 NUniq=    6 SFac= 1.00D+00 NAtFMM=   60 NAOKFM=F Big=F
 Integral buffers will be    131072 words long.
 Raffenetti 2 integral format.
 Two-electron integral symmetry is turned on.
 Leave Link  301 at Thu Sep  5 23:08:29 2019, MaxMem=  2684354560 cpu:         0.4
 (Enter /soft/gaussian/09-e.01/g09/l302.exe)
 NPDir=0 NMtPBC=     1 NCelOv=     1 NCel=       1 NClECP=     1 NCelD=      1
         NCelK=      1 NCelE2=     1 NClLst=     1 CellRange=     0.0.
 One-electron integrals computed using PRISM.
 NBasis=    25 RedAO= T EigKep=  1.56D-02  NBF=    25
 NBsUse=    25 1.00D-06 EigRej= -1.00D+00 NBFU=    25
 Precomputing XC quadrature grid using
 IXCGrd= 4 IRadAn=           5 IRanWt=          -1 IRanGd=           0 AccXCQ= 0.00D+00.
 Generated NRdTot=       0 NPtTot=           0 NUsed=           0 NTot=          32
 NSgBfM=    25    25    25    25    25 MxSgAt=     6 MxSgA2=     6.
 Leave Link  302 at Thu Sep  5 23:08:29 2019, MaxMem=  2684354560 cpu:         1.6
 (Enter /soft/gaussian/09-e.01/g09/l303.exe)
 DipDrv:  MaxL=1.
 Leave Link  303 at Thu Sep  5 23:08:29 2019, MaxMem=  2684354560 cpu:         0.2
 (Enter /soft/gaussian/09-e.01/g09/l401.exe)
 Initial guess from the checkpoint file:  "/blues/gpfs/home/elliott/Packages/PACC/moldriver/rcdriver/tmprundir/RXN/CH3.H2/MDUSDFXREFXETQ/0_0/2_1/UHFFFAOYSA-N/CH4.H/HXBDELFRWIQQII/0_0/1_2/UHFFFAOYSA-N/2/ezvlpJU/SCANS/R6/07/RUN/OPTI/A00/Gau-162862.chk"
 B after Tr=     0.000000    0.000000   -0.000000
         Rot=    0.707219   -0.000952    0.000952   -0.706993 Ang= -89.98 deg.
 Guess basis will be translated and rotated to current coordinates.
 JPrj=2 DoOrth=T DoCkMO=T.
 Initial guess <Sx>= 0.0000 <Sy>= 0.0000 <Sz>= 0.5000 <S**2>= 0.7507 S= 0.5003
 Leave Link  401 at Thu Sep  5 23:08:29 2019, MaxMem=  2684354560 cpu:         0.6
 (Enter /soft/gaussian/09-e.01/g09/l502.exe)
 UHF open shell SCF:
 Using DIIS extrapolation, IDIIS=  1040.
 Integral symmetry usage will be decided dynamically.
 Keep R1 and R2 ints in memory in canonical form, NReq=976418.
 IVT=        8268 IEndB=        8268 NGot=  2684354560 MDV=  2684240343
 LenX=  2684240343 LenY=  2684239277
 Requested convergence on RMS density matrix=1.00D-08 within  64 cycles.
 Requested convergence on MAX density matrix=1.00D-06.
 Requested convergence on             energy=1.00D-06.
 No special actions if energy rises.
 FoFCou: FMM=F IPFlag=           0 FMFlag=           0 FMFlg1=           0
         NFxFlg=           0 DoJE=F BraDBF=F KetDBF=F FulRan=T
         wScrn=  0.000000 ICntrl=     600 IOpCl=  0 I1Cent=           0 NGrid=           0
         NMat0=    1 NMatS0=    325 NMatT0=    0 NMatD0=    1 NMtDS0=    0 NMtDT0=    0
 Symmetry not used in FoFCou.

 Cycle   1  Pass 1  IDiag  1:
 E= -41.0168849763548    
 DIIS: error= 8.37D-04 at cycle   1 NSaved=   1.
 NSaved= 1 IEnMin= 1 EnMin= -41.0168849763548     IErMin= 1 ErrMin= 8.37D-04
 ErrMax= 8.37D-04  0.00D+00 EMaxC= 1.00D-01 BMatC= 3.27D-05 BMatP= 3.27D-05
 IDIUse=3 WtCom= 9.92D-01 WtEn= 8.37D-03
 Coeff-Com:  0.100D+01
 Coeff-En:   0.100D+01
 Coeff:      0.100D+01
 Gap=     2.146 Goal=   None    Shift=    0.000
 Gap=     2.092 Goal=   None    Shift=    0.000
 RMSDP=1.79D-04 MaxDP=1.95D-03              OVMax= 3.29D-03

 Cycle   2  Pass 1  IDiag  1:
 E= -41.0168938233387     Delta-E=       -0.000008846984 Rises=F Damp=F
 DIIS: error= 5.15D-04 at cycle   2 NSaved=   2.
 NSaved= 2 IEnMin= 2 EnMin= -41.0168938233387     IErMin= 2 ErrMin= 5.15D-04
 ErrMax= 5.15D-04  0.00D+00 EMaxC= 1.00D-01 BMatC= 1.78D-05 BMatP= 3.27D-05
 IDIUse=3 WtCom= 9.95D-01 WtEn= 5.15D-03
 Coeff-Com:  0.404D+00 0.596D+00
 Coeff-En:   0.000D+00 0.100D+01
 Coeff:      0.402D+00 0.598D+00
 Gap=     0.425 Goal=   None    Shift=    0.000
 Gap=     0.310 Goal=   None    Shift=    0.000
 RMSDP=8.92D-05 MaxDP=7.14D-04 DE=-8.85D-06 OVMax= 8.51D-04

 Cycle   3  Pass 1  IDiag  1:
 E= -41.0168979870962     Delta-E=       -0.000004163758 Rises=F Damp=F
 DIIS: error= 1.52D-04 at cycle   3 NSaved=   3.
 NSaved= 3 IEnMin= 3 EnMin= -41.0168979870962     IErMin= 3 ErrMin= 1.52D-04
 ErrMax= 1.52D-04  0.00D+00 EMaxC= 1.00D-01 BMatC= 1.74D-06 BMatP= 1.78D-05
 IDIUse=3 WtCom= 9.98D-01 WtEn= 1.52D-03
 EnCoef did     3 forward-backward iterations
 Coeff-Com:  0.510D-03 0.234D+00 0.766D+00
 Coeff-En:   0.000D+00 0.124D-02 0.999D+00
 Coeff:      0.510D-03 0.234D+00 0.766D+00
 Gap=     0.425 Goal=   None    Shift=    0.000
 Gap=     0.310 Goal=   None    Shift=    0.000
 RMSDP=2.00D-05 MaxDP=2.34D-04 DE=-4.16D-06 OVMax= 3.19D-04

 Cycle   4  Pass 1  IDiag  1:
 E= -41.0168984290122     Delta-E=       -0.000000441916 Rises=F Damp=F
 DIIS: error= 1.36D-05 at cycle   4 NSaved=   4.
 NSaved= 4 IEnMin= 4 EnMin= -41.0168984290122     IErMin= 4 ErrMin= 1.36D-05
 ErrMax= 1.36D-05  0.00D+00 EMaxC= 1.00D-01 BMatC= 6.84D-09 BMatP= 1.74D-06
 IDIUse=1 WtCom= 1.00D+00 WtEn= 0.00D+00
 Coeff-Com: -0.501D-02 0.284D-01 0.117D+00 0.860D+00
 Coeff:     -0.501D-02 0.284D-01 0.117D+00 0.860D+00
 Gap=     0.425 Goal=   None    Shift=    0.000
 Gap=     0.310 Goal=   None    Shift=    0.000
 RMSDP=2.50D-06 MaxDP=2.18D-05 DE=-4.42D-07 OVMax= 3.16D-05

 Cycle   5  Pass 1  IDiag  1:
 E= -41.0168984315985     Delta-E=       -0.000000002586 Rises=F Damp=F
 DIIS: error= 3.69D-06 at cycle   5 NSaved=   5.
 NSaved= 5 IEnMin= 5 EnMin= -41.0168984315985     IErMin= 5 ErrMin= 3.69D-06
 ErrMax= 3.69D-06  0.00D+00 EMaxC= 1.00D-01 BMatC= 4.58D-10 BMatP= 6.84D-09
 IDIUse=1 WtCom= 1.00D+00 WtEn= 0.00D+00
 Coeff-Com:  0.197D-03-0.100D-01-0.317D-01 0.417D-01 0.100D+01
 Coeff:      0.197D-03-0.100D-01-0.317D-01 0.417D-01 0.100D+01
 Gap=     0.425 Goal=   None    Shift=    0.000
 Gap=     0.310 Goal=   None    Shift=    0.000
 RMSDP=8.06D-07 MaxDP=8.34D-06 DE=-2.59D-09 OVMax= 1.79D-05

 Cycle   6  Pass 1  IDiag  1:
 E= -41.0168984318787     Delta-E=       -0.000000000280 Rises=F Damp=F
 DIIS: error= 8.20D-07 at cycle   6 NSaved=   6.
 NSaved= 6 IEnMin= 6 EnMin= -41.0168984318787     IErMin= 6 ErrMin= 8.20D-07
 ErrMax= 8.20D-07  0.00D+00 EMaxC= 1.00D-01 BMatC= 3.78D-11 BMatP= 4.58D-10
 IDIUse=1 WtCom= 1.00D+00 WtEn= 0.00D+00
 Coeff-Com:  0.390D-03-0.180D-03-0.804D-03-0.863D-01-0.220D+00 0.131D+01
 Coeff:      0.390D-03-0.180D-03-0.804D-03-0.863D-01-0.220D+00 0.131D+01
 Gap=     0.425 Goal=   None    Shift=    0.000
 Gap=     0.310 Goal=   None    Shift=    0.000
 RMSDP=3.62D-07 MaxDP=3.50D-06 DE=-2.80D-10 OVMax= 4.79D-06

 Cycle   7  Pass 1  IDiag  1:
 E= -41.0168984319086     Delta-E=       -0.000000000030 Rises=F Damp=F
 DIIS: error= 1.29D-07 at cycle   7 NSaved=   7.
 NSaved= 7 IEnMin= 7 EnMin= -41.0168984319086     IErMin= 7 ErrMin= 1.29D-07
 ErrMax= 1.29D-07  0.00D+00 EMaxC= 1.00D-01 BMatC= 7.25D-13 BMatP= 3.78D-11
 IDIUse=1 WtCom= 1.00D+00 WtEn= 0.00D+00
 Coeff-Com: -0.516D-04 0.434D-03 0.102D-02 0.854D-02-0.430D-02-0.125D+00
 Coeff-Com:  0.112D+01
 Coeff:     -0.516D-04 0.434D-03 0.102D-02 0.854D-02-0.430D-02-0.125D+00
 Coeff:      0.112D+01
 Gap=     0.425 Goal=   None    Shift=    0.000
 Gap=     0.310 Goal=   None    Shift=    0.000
 RMSDP=3.24D-08 MaxDP=2.71D-07 DE=-2.99D-11 OVMax= 3.66D-07

 Cycle   8  Pass 1  IDiag  1:
 E= -41.0168984319090     Delta-E=       -0.000000000000 Rises=F Damp=F
 DIIS: error= 1.85D-08 at cycle   8 NSaved=   8.
 NSaved= 8 IEnMin= 8 EnMin= -41.0168984319090     IErMin= 8 ErrMin= 1.85D-08
 ErrMax= 1.85D-08  0.00D+00 EMaxC= 1.00D-01 BMatC= 2.92D-14 BMatP= 7.25D-13
 IDIUse=1 WtCom= 1.00D+00 WtEn= 0.00D+00
 Coeff-Com: -0.107D-04-0.729D-04-0.134D-03 0.214D-02 0.976D-02-0.294D-01
 Coeff-Com: -0.239D+00 0.126D+01
 Coeff:     -0.107D-04-0.729D-04-0.134D-03 0.214D-02 0.976D-02-0.294D-01
 Coeff:     -0.239D+00 0.126D+01
 Gap=     0.425 Goal=   None    Shift=    0.000
 Gap=     0.310 Goal=   None    Shift=    0.000
 RMSDP=9.52D-09 MaxDP=6.48D-08 DE=-4.62D-13 OVMax= 1.37D-07

 SCF Done:  E(UB3LYP) =  -41.0168984319     A.U. after    8 cycles
            NFock=  8  Conv=0.95D-08     -V/T= 2.0105
 <Sx>= 0.0000 <Sy>= 0.0000 <Sz>= 0.5000 <S**2>= 0.7507 S= 0.5003
 <L.S>= 0.000000000000E+00
 KE= 4.059027218849D+01 PE=-1.245646725623D+02 EE= 2.769240042492D+01
 Annihilation of the first spin contaminant:
 S**2 before annihilation     0.7507,   after     0.7500
 Leave Link  502 at Thu Sep  5 23:08:30 2019, MaxMem=  2684354560 cpu:         7.3
 (Enter /soft/gaussian/09-e.01/g09/l508.exe)
 QCSCF skips out because SCF is already converged.
 Leave Link  508 at Thu Sep  5 23:08:30 2019, MaxMem=  2684354560 cpu:         0.0
 (Enter /soft/gaussian/09-e.01/g09/l701.exe)
 Compute integral first derivatives.
 ... and contract with generalized density number  0.
 Leave Link  701 at Thu Sep  5 23:08:30 2019, MaxMem=  2684354560 cpu:         1.4
 (Enter /soft/gaussian/09-e.01/g09/l702.exe)
 L702 exits ... SP integral derivatives will be done elsewhere.
 Leave Link  702 at Thu Sep  5 23:08:30 2019, MaxMem=  2684354560 cpu:         0.1
 (Enter /soft/gaussian/09-e.01/g09/l703.exe)
 Compute integral first derivatives, UseDBF=F ICtDFT=           0.
 Integral derivatives from FoFJK, PRISM(SPDF).
 Calling FoFJK, ICntrl=      2127 FMM=F ISym2X=0 I1Cent= 0 IOpClX= 1 NMat=1 NMatS=1 NMatT=0.
 FoFJK:  IHMeth= 1 ICntrl=    2127 DoSepK=F KAlg= 0 I1Cent=   0 FoldK=F
 IRaf=         0 NMat=   1 IRICut=       1 DoRegI=T DoRafI=F ISym2E= 0.
 FoFCou: FMM=F IPFlag=           0 FMFlag=      100000 FMFlg1=         800
         NFxFlg=           0 DoJE=F BraDBF=F KetDBF=F FulRan=T
         wScrn=  0.000000 ICntrl=    2127 IOpCl=  1 I1Cent=           0 NGrid=           0
         NMat0=    1 NMatS0=      1 NMatT0=    0 NMatD0=    1 NMtDS0=    0 NMtDT0=    0
 Symmetry not used in FoFCou.
 Leave Link  703 at Thu Sep  5 23:08:31 2019, MaxMem=  2684354560 cpu:         2.2
 (Enter /soft/gaussian/09-e.01/g09/l716.exe)
 Dipole        =-4.03564054D-02-1.05287156D-03-3.17095450D-06
 ***** Axes restored to original set *****
 -------------------------------------------------------------------
 Center     Atomic                   Forces (Hartrees/Bohr)
 Number     Number              X              Y              Z
 -------------------------------------------------------------------
      1        6           0.000404887   -0.000706887    0.000472825
      2        1          -0.000102743    0.000179404   -0.000112153
      3        1          -0.000127809    0.000185680   -0.000068263
      4        1          -0.000095516    0.000204006   -0.000068253
      5        1           0.001583994   -0.002763262    0.001176396
      6        1          -0.001662813    0.002901058   -0.001400552
 -------------------------------------------------------------------
 Cartesian Forces:  Max     0.002901058 RMS     0.001195468
 -----------------------------------------------------------------------------------------------
                       Internal Coordinate Forces (Hartree/Bohr or radian)
  Cent   Atom   N1       Length/X         N2         Alpha/Y        N3         Beta/Z          J
 -----------------------------------------------------------------------------------------------
      1  C 
      2  H        1  -0.000112(     1)
      3  H        1  -0.000097(     2)      2   0.000222(     7)
      4  H        1  -0.000097(     3)      2   0.000221(     8)      3   0.000361(    12)     0
      5  H        1   0.000224(     4)      2   0.000017(     9)      3   0.000000(    13)     0
         X        5  -0.000000(     5)      1   0.000313(    10)      2   0.000000(    14)     0
      6  H        5   0.003624(     6)      6   0.000313(    11)      1   0.000000(    15)     0
 -----------------------------------------------------------------------------------------------
 Internal  Forces:  Max     0.003624024 RMS     0.000953608
 Leave Link  716 at Thu Sep  5 23:08:31 2019, MaxMem=  2684354560 cpu:         0.2
 (Enter /soft/gaussian/09-e.01/g09/l103.exe)

 GradGradGradGradGradGradGradGradGradGradGradGradGradGradGradGradGradGrad
 Berny optimization.
 Search for a local minimum.
 Step number   2 out of a maximum of   25
 All quantities printed in internal units (Hartrees-Bohrs-Radians)
 Update second derivatives using D2CorN and points    1    2
 DE= -5.68D-05 DEPred=-5.38D-05 R= 1.06D+00
 TightC=F SS=  1.41D+00  RLast= 1.90D-02 DXNew= 5.0454D-01 5.7061D-02
 Trust test= 1.06D+00 RLast= 1.90D-02 DXMaxT set to 3.00D-01
 The second derivative matrix:
                          R1        R2        A2        R3        A3
           R1           0.34636
           R2           0.00069   0.34622
           A2          -0.00034  -0.00036   0.24219
           R3           0.00069   0.00063  -0.00036   0.34622
           A3          -0.00034  -0.00036   0.03994  -0.00036   0.24219
           D3          -0.00024  -0.00031  -0.06804  -0.00031  -0.00429
           R4           0.00182   0.00152  -0.00586   0.00152  -0.00586
           A4          -0.00039  -0.00035   0.04279  -0.00035   0.04279
           D4           0.00049   0.00042   0.06280   0.00042  -0.06472
           A6          -0.00075  -0.00074  -0.00175  -0.00074  -0.00175
           D6           0.00000   0.00000  -0.02415   0.00000   0.02415
           A5          -0.00106  -0.00101  -0.00114  -0.00101  -0.00114
           D5          -0.00000  -0.00000  -0.00211  -0.00000   0.00211
           R5          -0.00000  -0.00000  -0.00000  -0.00000  -0.00000
           R6           0.00053   0.00050   0.00057   0.00050   0.00057
                          D3        R4        A4        D4        A6
           D3           0.20931
           R4          -0.01016   0.33544
           A4           0.06538   0.00026   0.24240
           D4          -0.10963  -0.00096  -0.00008   0.21614
           A6          -0.00372  -0.00777   0.00089  -0.00136   0.15826
           D6          -0.01314  -0.00000   0.00000   0.02629  -0.00000
           A5          -0.00272  -0.00715   0.00093  -0.00136   0.15913
           D5          -0.00115  -0.00000   0.00000   0.00230  -0.00000
           R5          -0.00000  -0.00000  -0.00000  -0.00000   0.00000
           R6           0.00136   0.00358  -0.00047   0.00068   0.00043
                          D6        A5        D5        R5        R6
           D6           0.90146
           A5          -0.00000   0.16000
           D5           0.07887  -0.00000   0.00690
           R5           0.00000   0.00000   0.00000   0.00000
           R6           0.00000   0.00000  -0.00000  -0.00000   0.03935
 ITU=  1  0
     Eigenvalues ---    0.06751   0.13252   0.15825   0.23378   0.32283
     Eigenvalues ---    0.33814   0.34560   0.34560   0.34854   0.38927
     Eigenvalues ---    0.904151000.000001000.000001000.000001000.00000
 RFO step:  Lambda=-2.71275713D-06 EMin= 6.75089101D-02
 Quartic linear search produced a step of  0.07152.
 Variable       Old X    -DE/DX   Delta X   Delta X   Delta X     New X
                                 (Linear)    (Quad)   (Total)
    R1        2.06641  -0.00011   0.00017  -0.00051  -0.00033   2.06607
    R2        2.06629  -0.00010   0.00017  -0.00045  -0.00029   2.06600
    A2        1.91326   0.00022   0.00019   0.00139   0.00158   1.91484
    R3        2.06629  -0.00010   0.00017  -0.00045  -0.00029   2.06600
    A3        1.91326   0.00022   0.00019   0.00144   0.00162   1.91489
    D3        2.10067   0.00036   0.00045   0.00354   0.00399   2.10466
    R4        2.08049   0.00022   0.00118  -0.00026   0.00092   2.08141
    A4        1.90848   0.00002  -0.00015  -0.00142  -0.00157   1.90690
    D4        4.19193   0.00000   0.00022   0.00184   0.00207   4.19400
    A6        1.48554   0.00031   0.00014   0.00210   0.00225   1.48778
    D6        3.14159   0.00000   0.00000  -0.00000  -0.00000   3.14159
    A5        1.57080   0.00031   0.00000   0.00000   0.00000   1.57080
    D5        3.14159   0.00000   0.00000   0.00000   0.00000   3.14159
    R5        1.88973  -0.00000   0.00000   0.00000   0.00000   1.88973
    R6        3.28812   0.00362   0.00000   0.00000   0.00000   3.28812
         Item               Value     Threshold  Converged?
 Maximum Force            0.000361     0.000450     YES
 RMS     Force            0.000193     0.000300     YES
 Maximum Displacement     0.003986     0.001800     NO 
 RMS     Displacement     0.001504     0.001200     NO 
 Predicted change in Energy=-1.512504D-06
 Lowest energy point so far.  Saving SCF results.
 GradGradGradGradGradGradGradGradGradGradGradGradGradGradGradGradGradGrad

 Leave Link  103 at Thu Sep  5 23:08:31 2019, MaxMem=  2684354560 cpu:         0.1
 (Enter /soft/gaussian/09-e.01/g09/l202.exe)
 ---------------------------------------------------------------------------------------------------
                            Z-MATRIX (ANGSTROMS AND DEGREES)
   CD    Cent   Atom    N1       Length/X        N2       Alpha/Y        N3        Beta/Z          J
 ---------------------------------------------------------------------------------------------------
      1      1  C 
      2      2  H        1   1.093318(     1)
      3      3  H        1   1.093279(     2)      2  109.712(     7)
      4      4  H        1   1.093280(     3)      2  109.715(     8)      3  120.588(    12)      0
      5      5  H        1   1.101436(     4)      2  109.257(     9)      3  240.298(    13)      0
      6         X        5   1.000000(     5)      1   90.000(    10)      2  180.000(    14)      0
      7      6  H        5   1.740000(     6)      6   85.244(    11)      1  180.000(    15)      0
 ---------------------------------------------------------------------------------------------------
                         Z-Matrix orientation:                         
 ---------------------------------------------------------------------
 Center     Atomic      Atomic             Coordinates (Angstroms)
 Number     Number       Type             X           Y           Z
 ---------------------------------------------------------------------
      1          6           0        0.000000    0.000000    0.000000
      2          1           0        0.000000    0.000000    1.093318
      3          1           0        1.029212    0.000000   -0.368759
      4          1           0       -0.523719   -0.885979   -0.368808
      5          1           0       -0.515208    0.903194   -0.363267
      6         -1           0       -0.351791    0.616713   -1.307314
      7          1           0       -1.302725    2.283775   -1.071372
 ---------------------------------------------------------------------
                    Distance matrix (angstroms):
                    1          2          3          4          5
     1  C    0.000000
     2  H    1.093318   0.000000
     3  H    1.093279   1.788001   0.000000
     4  H    1.093280   1.788031   1.787891   0.000000
     5  H    1.101436   1.789648   1.789140   1.789202   0.000000
     6  X    1.487670   2.503423   1.779997   1.780011   1.000000
     7  H    2.839112   3.405672   3.338745   3.338830   1.740000
                    6          7
     6  X    0.000000
     7  H    1.933660   0.000000
 Stoichiometry    CH5(2)
 Framework group  C1[X(CH5)]
 Deg. of freedom    12
 Full point group                 C1      NOp   1
 RotChk:  IX=0 Diff= 1.90D-01
 Largest Abelian subgroup         C1      NOp   1
 Largest concise Abelian subgroup C1      NOp   1
                         Standard orientation:                         
 ---------------------------------------------------------------------
 Center     Atomic      Atomic             Coordinates (Angstroms)
 Number     Number       Type             X           Y           Z
 ---------------------------------------------------------------------
      1          6           0       -0.260023   -0.000063    0.000001
      2          1           0       -0.672668    1.003740   -0.132092
      3          1           0       -0.593080   -0.412816    0.956018
      4          1           0       -0.593188   -0.646174   -0.816579
      5          1           0        0.839986    0.055505   -0.007319
      6          1           0        2.579089    0.000126   -0.000036
 ---------------------------------------------------------------------
 Rotational constants (GHZ):    156.8613645     46.5294193     46.5282983
 Leave Link  202 at Thu Sep  5 23:08:31 2019, MaxMem=  2684354560 cpu:         0.1
 (Enter /soft/gaussian/09-e.01/g09/l301.exe)
 Standard basis: 6-31G(d) (6D, 7F)
 Ernie: Thresh=  0.10000D-02 Tol=  0.10000D-05 Strict=F.
 There are    25 symmetry adapted cartesian basis functions of A   symmetry.
 There are    25 symmetry adapted basis functions of A   symmetry.
    25 basis functions,    48 primitive gaussians,    25 cartesian basis functions
     6 alpha electrons        5 beta electrons
       nuclear repulsion energy        15.2649862428 Hartrees.
 IExCor=  402 DFT=T Ex+Corr=B3LYP ExCW=0 ScaHFX=  0.200000
 ScaDFX=  0.800000  0.720000  1.000000  0.810000 ScalE2=  1.000000  1.000000
 IRadAn=      5 IRanWt=     -1 IRanGd=            0 ICorTp=0 IEmpDi=  4
 NAtoms=    6 NActive=    6 NUniq=    6 SFac= 1.00D+00 NAtFMM=   60 NAOKFM=F Big=F
 Integral buffers will be    131072 words long.
 Raffenetti 2 integral format.
 Two-electron integral symmetry is turned on.
 Leave Link  301 at Thu Sep  5 23:08:31 2019, MaxMem=  2684354560 cpu:         0.5
 (Enter /soft/gaussian/09-e.01/g09/l302.exe)
 NPDir=0 NMtPBC=     1 NCelOv=     1 NCel=       1 NClECP=     1 NCelD=      1
         NCelK=      1 NCelE2=     1 NClLst=     1 CellRange=     0.0.
 One-electron integrals computed using PRISM.
 NBasis=    25 RedAO= T EigKep=  1.56D-02  NBF=    25
 NBsUse=    25 1.00D-06 EigRej= -1.00D+00 NBFU=    25
 Precomputing XC quadrature grid using
 IXCGrd= 4 IRadAn=           5 IRanWt=          -1 IRanGd=           0 AccXCQ= 0.00D+00.
 Generated NRdTot=       0 NPtTot=           0 NUsed=           0 NTot=          32
 NSgBfM=    25    25    25    25    25 MxSgAt=     6 MxSgA2=     6.
 Leave Link  302 at Thu Sep  5 23:08:31 2019, MaxMem=  2684354560 cpu:         1.7
 (Enter /soft/gaussian/09-e.01/g09/l303.exe)
 DipDrv:  MaxL=1.
 Leave Link  303 at Thu Sep  5 23:08:31 2019, MaxMem=  2684354560 cpu:         0.2
 (Enter /soft/gaussian/09-e.01/g09/l401.exe)
 Initial guess from the checkpoint file:  "/blues/gpfs/home/elliott/Packages/PACC/moldriver/rcdriver/tmprundir/RXN/CH3.H2/MDUSDFXREFXETQ/0_0/2_1/UHFFFAOYSA-N/CH4.H/HXBDELFRWIQQII/0_0/1_2/UHFFFAOYSA-N/2/ezvlpJU/SCANS/R6/07/RUN/OPTI/A00/Gau-162862.chk"
 B after Tr=    -0.000000    0.000000    0.000000
         Rot=    0.997770    0.066738    0.000003    0.000189 Ang=   7.65 deg.
 Guess basis will be translated and rotated to current coordinates.
 JPrj=2 DoOrth=T DoCkMO=T.
 Initial guess <Sx>= 0.0000 <Sy>= 0.0000 <Sz>= 0.5000 <S**2>= 0.7507 S= 0.5003
 Leave Link  401 at Thu Sep  5 23:08:31 2019, MaxMem=  2684354560 cpu:         0.6
 (Enter /soft/gaussian/09-e.01/g09/l502.exe)
 UHF open shell SCF:
 Using DIIS extrapolation, IDIIS=  1040.
 Integral symmetry usage will be decided dynamically.
 Keep R1 and R2 ints in memory in canonical form, NReq=976418.
 IVT=        8268 IEndB=        8268 NGot=  2684354560 MDV=  2684240343
 LenX=  2684240343 LenY=  2684239277
 Requested convergence on RMS density matrix=1.00D-08 within  64 cycles.
 Requested convergence on MAX density matrix=1.00D-06.
 Requested convergence on             energy=1.00D-06.
 No special actions if energy rises.
 FoFCou: FMM=F IPFlag=           0 FMFlag=           0 FMFlg1=           0
         NFxFlg=           0 DoJE=F BraDBF=F KetDBF=F FulRan=T
         wScrn=  0.000000 ICntrl=     600 IOpCl=  0 I1Cent=           0 NGrid=           0
         NMat0=    1 NMatS0=    325 NMatT0=    0 NMatD0=    1 NMtDS0=    0 NMtDT0=    0
 Symmetry not used in FoFCou.

 Cycle   1  Pass 1  IDiag  1:
 E= -41.0168998737979    
 DIIS: error= 1.22D-04 at cycle   1 NSaved=   1.
 NSaved= 1 IEnMin= 1 EnMin= -41.0168998737979     IErMin= 1 ErrMin= 1.22D-04
 ErrMax= 1.22D-04  0.00D+00 EMaxC= 1.00D-01 BMatC= 1.45D-06 BMatP= 1.45D-06
 IDIUse=3 WtCom= 9.99D-01 WtEn= 1.22D-03
 Coeff-Com:  0.100D+01
 Coeff-En:   0.100D+01
 Coeff:      0.100D+01
 Gap=     2.153 Goal=   None    Shift=    0.000
 Gap=     2.102 Goal=   None    Shift=    0.000
 RMSDP=3.12D-05 MaxDP=2.09D-04              OVMax= 4.46D-04

 Cycle   2  Pass 1  IDiag  1:
 E= -41.0169004933512     Delta-E=       -0.000000619553 Rises=F Damp=F
 DIIS: error= 1.39D-05 at cycle   2 NSaved=   2.
 NSaved= 2 IEnMin= 2 EnMin= -41.0169004933512     IErMin= 2 ErrMin= 1.39D-05
 ErrMax= 1.39D-05  0.00D+00 EMaxC= 1.00D-01 BMatC= 1.66D-08 BMatP= 1.45D-06
 IDIUse=1 WtCom= 1.00D+00 WtEn= 0.00D+00
 Coeff-Com: -0.120D-01 0.101D+01
 Coeff:     -0.120D-01 0.101D+01
 Gap=     0.424 Goal=   None    Shift=    0.000
 Gap=     0.310 Goal=   None    Shift=    0.000
 RMSDP=5.50D-06 MaxDP=3.85D-05 DE=-6.20D-07 OVMax= 5.70D-05

 Cycle   3  Pass 1  IDiag  1:
 E= -41.0169005003540     Delta-E=       -0.000000007003 Rises=F Damp=F
 DIIS: error= 7.63D-06 at cycle   3 NSaved=   3.
 NSaved= 3 IEnMin= 3 EnMin= -41.0169005003540     IErMin= 3 ErrMin= 7.63D-06
 ErrMax= 7.63D-06  0.00D+00 EMaxC= 1.00D-01 BMatC= 2.35D-09 BMatP= 1.66D-08
 IDIUse=1 WtCom= 1.00D+00 WtEn= 0.00D+00
 Coeff-Com: -0.181D-01 0.240D+00 0.778D+00
 Coeff:     -0.181D-01 0.240D+00 0.778D+00
 Gap=     0.424 Goal=   None    Shift=    0.000
 Gap=     0.310 Goal=   None    Shift=    0.000
 RMSDP=1.04D-06 MaxDP=8.54D-06 DE=-7.00D-09 OVMax= 1.82D-05

 Cycle   4  Pass 1  IDiag  1:
 E= -41.0169005010025     Delta-E=       -0.000000000648 Rises=F Damp=F
 DIIS: error= 1.14D-06 at cycle   4 NSaved=   4.
 NSaved= 4 IEnMin= 4 EnMin= -41.0169005010025     IErMin= 4 ErrMin= 1.14D-06
 ErrMax= 1.14D-06  0.00D+00 EMaxC= 1.00D-01 BMatC= 9.61D-11 BMatP= 2.35D-09
 IDIUse=1 WtCom= 1.00D+00 WtEn= 0.00D+00
 Coeff-Com: -0.352D-02 0.272D-01 0.165D+00 0.811D+00
 Coeff:     -0.352D-02 0.272D-01 0.165D+00 0.811D+00
 Gap=     0.424 Goal=   None    Shift=    0.000
 Gap=     0.310 Goal=   None    Shift=    0.000
 RMSDP=2.89D-07 MaxDP=2.97D-06 DE=-6.48D-10 OVMax= 3.23D-06

 Cycle   5  Pass 1  IDiag  1:
 E= -41.0169005010258     Delta-E=       -0.000000000023 Rises=F Damp=F
 DIIS: error= 7.70D-07 at cycle   5 NSaved=   5.
 NSaved= 5 IEnMin= 5 EnMin= -41.0169005010258     IErMin= 5 ErrMin= 7.70D-07
 ErrMax= 7.70D-07  0.00D+00 EMaxC= 1.00D-01 BMatC= 3.85D-11 BMatP= 9.61D-11
 IDIUse=1 WtCom= 1.00D+00 WtEn= 0.00D+00
 Coeff-Com:  0.468D-03-0.139D-01-0.925D-02 0.393D+00 0.629D+00
 Coeff:      0.468D-03-0.139D-01-0.925D-02 0.393D+00 0.629D+00
 Gap=     0.424 Goal=   None    Shift=    0.000
 Gap=     0.310 Goal=   None    Shift=    0.000
 RMSDP=1.16D-07 MaxDP=1.33D-06 DE=-2.33D-11 OVMax= 2.36D-06

 Cycle   6  Pass 1  IDiag  1:
 E= -41.0169005010373     Delta-E=       -0.000000000011 Rises=F Damp=F
 DIIS: error= 1.46D-07 at cycle   6 NSaved=   6.
 NSaved= 6 IEnMin= 6 EnMin= -41.0169005010373     IErMin= 6 ErrMin= 1.46D-07
 ErrMax= 1.46D-07  0.00D+00 EMaxC= 1.00D-01 BMatC= 1.08D-12 BMatP= 3.85D-11
 IDIUse=1 WtCom= 1.00D+00 WtEn= 0.00D+00
 Coeff-Com:  0.375D-03-0.198D-02-0.178D-01-0.128D+00-0.297D-01 0.118D+01
 Coeff:      0.375D-03-0.198D-02-0.178D-01-0.128D+00-0.297D-01 0.118D+01
 Gap=     0.424 Goal=   None    Shift=    0.000
 Gap=     0.310 Goal=   None    Shift=    0.000
 RMSDP=4.99D-08 MaxDP=4.60D-07 DE=-1.15D-11 OVMax= 8.49D-07

 Cycle   7  Pass 1  IDiag  1:
 E= -41.0169005010380     Delta-E=       -0.000000000001 Rises=F Damp=F
 DIIS: error= 1.92D-08 at cycle   7 NSaved=   7.
 NSaved= 7 IEnMin= 7 EnMin= -41.0169005010380     IErMin= 7 ErrMin= 1.92D-08
 ErrMax= 1.92D-08  0.00D+00 EMaxC= 1.00D-01 BMatC= 3.09D-14 BMatP= 1.08D-12
 IDIUse=1 WtCom= 1.00D+00 WtEn= 0.00D+00
 Coeff-Com: -0.815D-04 0.105D-02 0.317D-02-0.764D-02-0.345D-01-0.122D+00
 Coeff-Com:  0.116D+01
 Coeff:     -0.815D-04 0.105D-02 0.317D-02-0.764D-02-0.345D-01-0.122D+00
 Coeff:      0.116D+01
 Gap=     0.424 Goal=   None    Shift=    0.000
 Gap=     0.310 Goal=   None    Shift=    0.000
 RMSDP=9.03D-09 MaxDP=7.81D-08 DE=-7.32D-13 OVMax= 1.05D-07

 SCF Done:  E(UB3LYP) =  -41.0169005010     A.U. after    7 cycles
            NFock=  7  Conv=0.90D-08     -V/T= 2.0105
 <Sx>= 0.0000 <Sy>= 0.0000 <Sz>= 0.5000 <S**2>= 0.7507 S= 0.5003
 <L.S>= 0.000000000000E+00
 KE= 4.059024838991D+01 PE=-1.245643638166D+02 EE= 2.769222868284D+01
 Annihilation of the first spin contaminant:
 S**2 before annihilation     0.7507,   after     0.7500
 Leave Link  502 at Thu Sep  5 23:08:32 2019, MaxMem=  2684354560 cpu:         5.8
 (Enter /soft/gaussian/09-e.01/g09/l508.exe)
 QCSCF skips out because SCF is already converged.
 Leave Link  508 at Thu Sep  5 23:08:32 2019, MaxMem=  2684354560 cpu:         0.0
 (Enter /soft/gaussian/09-e.01/g09/l701.exe)
 Compute integral first derivatives.
 ... and contract with generalized density number  0.
 Leave Link  701 at Thu Sep  5 23:08:32 2019, MaxMem=  2684354560 cpu:         1.6
 (Enter /soft/gaussian/09-e.01/g09/l702.exe)
[...]
 (Enter /soft/gaussian/09-e.01/g09/l103.exe)

 GradGradGradGradGradGradGradGradGradGradGradGradGradGradGradGradGradGrad
 Berny optimization.
 Search for a local minimum.
 Step number   8 out of a maximum of   25
 All quantities printed in internal units (Hartrees-Bohrs-Radians)
 Update second derivatives using D2CorN and points    1    7    8
 DE= -1.67D-06 DEPred=-1.81D-06 R= 9.23D-01
 TightC=F SS=  1.41D+00  RLast= 2.95D-02 DXNew= 5.0454D-01 8.8582D-02
 Trust test= 9.23D-01 RLast= 2.95D-02 DXMaxT set to 3.00D-01
 The second derivative matrix:
                          R1        R2        A2        R3        A3
           R1           0.34679
           R2           0.00109   0.34659
           A2          -0.00020  -0.00023   0.24369
           R3           0.00107   0.00097  -0.00018   0.34655
           A3          -0.00021  -0.00023   0.04159  -0.00018   0.24400
           D3           0.00032   0.00025  -0.06285   0.00038   0.00128
           R4           0.00393   0.00340  -0.00601   0.00334  -0.00586
           A4          -0.00077  -0.00073   0.03966  -0.00079   0.03951
           D4           0.00093   0.00088   0.06692   0.00096  -0.06038
           A6           0.00045   0.00011  -0.00045   0.00001  -0.00046
           D6          -0.00000  -0.00000  -0.02415  -0.00000   0.02414
           A5           0.00459   0.00402  -0.02379   0.00434  -0.02495
           D5          -0.00000  -0.00000  -0.00211  -0.00000   0.00211
           R5           0.00000   0.00000  -0.00000   0.00000  -0.00000
           R6           0.00092   0.00088   0.00092   0.00088   0.00091
                          D3        R4        A4        D4        A6
           D3           0.22567
           R4          -0.00702   0.33884
           A4           0.05637  -0.00362   0.24683
           D4          -0.09768   0.00381  -0.00602   0.22408
           A6          -0.00187  -0.00054   0.00205  -0.00084   0.00376
           D6          -0.01316  -0.00001   0.00001   0.02628   0.00004
           A5          -0.06226  -0.01702   0.02563  -0.03280   0.00860
           D5          -0.00115   0.00000  -0.00000   0.00230   0.00000
           R5          -0.00000   0.00000  -0.00000  -0.00000  -0.00000
           R6           0.00217   0.00612  -0.00073   0.00108   0.00025
                          D6        A5        D5        R5        R6
           D6           0.90146
           A5           0.00009   0.16000
           D5           0.07887  -0.00000   0.00690
           R5           0.00000   0.00000   0.00000   0.00000
           R6           0.00000   0.00000  -0.00000  -0.00000   0.03935
 ITU=  1  1  1  1  0  1  1  0
     Eigenvalues ---    0.00368   0.09799   0.13578   0.23378   0.32061
     Eigenvalues ---    0.33930   0.34560   0.34560   0.35244   0.38934
     Eigenvalues ---    0.904151000.000001000.000001000.000001000.00000
 RFO step:  Lambda=-6.09560358D-08 EMin= 3.67915820D-03
 Quartic linear search produced a step of  0.03362.
 Variable       Old X    -DE/DX   Delta X   Delta X   Delta X     New X
                                 (Linear)    (Quad)   (Total)
    R1        2.06594  -0.00000  -0.00000  -0.00001  -0.00001   2.06594
    R2        2.06596  -0.00000  -0.00000  -0.00001  -0.00001   2.06595
    A2        1.91488   0.00002   0.00000   0.00010   0.00010   1.91498
    R3        2.06601  -0.00001  -0.00000  -0.00004  -0.00004   2.06597
    A3        1.91466   0.00002   0.00000   0.00021   0.00022   1.91488
    D3        2.10433   0.00006   0.00001   0.00053   0.00054   2.10487
    R4        2.08136   0.00002   0.00000   0.00007   0.00007   2.08143
    A4        1.90671  -0.00003  -0.00001  -0.00028  -0.00029   1.90643
    D4        4.19347   0.00004   0.00001   0.00042   0.00043   4.19389
    A6        1.57017   0.00000   0.00099   0.00021   0.00121   1.57138
    D6        3.14160   0.00000  -0.00000  -0.00001  -0.00001   3.14160
    A5        1.57080   0.00000   0.00000   0.00000   0.00000   1.57080
    D5        3.14159   0.00000   0.00000   0.00000   0.00000   3.14159
    R5        1.88973   0.00000   0.00000   0.00000   0.00000   1.88973
    R6        3.28812   0.00359   0.00000   0.00000   0.00000   3.28812
         Item               Value     Threshold  Converged?
 Maximum Force            0.000057     0.000450     YES
 RMS     Force            0.000025     0.000300     YES
 Maximum Displacement     0.001207     0.001800     YES
 RMS     Displacement     0.000372     0.001200     YES
 Predicted change in Energy=-3.335323D-08
 Optimization completed.
    -- Stationary point found.
                       ----------------------------
                       !   Optimized Parameters   !
                       ! (Angstroms and Degrees)  !
 ----------------------                            ----------------------
 !      Name          Value   Derivative information (Atomic Units)     !
 ------------------------------------------------------------------------
 !       R1          1.0933   -DE/DX =    0.0                           !
 !       R2          1.0933   -DE/DX =    0.0                           !
 !       A2        109.7144   -DE/DX =    0.0                           !
 !       R3          1.0933   -DE/DX =    0.0                           !
 !       A3        109.7019   -DE/DX =    0.0                           !
 !       D3        120.5693   -DE/DX =    0.0001                        !
 !       R4          1.1014   -DE/DX =    0.0                           !
 !       A4        109.2467   -DE/DX =    0.0                           !
 !       D4        240.2679   -DE/DX =    0.0                           !
 !       A6         89.964    -DE/DX =    0.0                           !
 !       D6        180.0006   -DE/DX =    0.0                           !
 !       A5         90.0      -DE/DX =    0.0                           !
 !       D5        180.0      -DE/DX =    0.0                           !
 !       R5          1.0      -DE/DX =    0.0                           !
 !       R6          1.74     -DE/DX =    0.0036                        !
 ------------------------------------------------------------------------
 Lowest energy point so far.  Saving SCF results.
 GradGradGradGradGradGradGradGradGradGradGradGradGradGradGradGradGradGrad

 Largest change from initial coordinates is atom    6       3.644 Angstoms.
 Leave Link  103 at Thu Sep  5 23:08:40 2019, MaxMem=  2684354560 cpu:         0.1
 (Enter /soft/gaussian/09-e.01/g09/l202.exe)
 ---------------------------------------------------------------------------------------------------
                            Z-MATRIX (ANGSTROMS AND DEGREES)
   CD    Cent   Atom    N1       Length/X        N2       Alpha/Y        N3        Beta/Z          J
 ---------------------------------------------------------------------------------------------------
      1      1  C 
      2      2  H        1   1.093250(     1)
      3      3  H        1   1.093259(     2)      2  109.714(     7)
      4      4  H        1   1.093287(     3)      2  109.702(     8)      3  120.569(    12)      0
      5      5  H        1   1.101406(     4)      2  109.247(     9)      3  240.268(    13)      0
      6         X        5   1.000000(     5)      1   90.000(    10)      2  180.000(    14)      0
      7      6  H        5   1.740000(     6)      6   89.964(    11)      1  180.001(    15)      0
 ---------------------------------------------------------------------------------------------------
                         Z-Matrix orientation:                         
 ---------------------------------------------------------------------
 Center     Atomic      Atomic             Coordinates (Angstroms)
 Number     Number       Type             X           Y           Z
 ---------------------------------------------------------------------
      1          6           0        0.000000    0.000000    0.000000
      2          1           0        0.000000    0.000000    1.093250
      3          1           0        1.029178    0.000000   -0.368791
      4          1           0       -0.523474   -0.886230   -0.368577
      5          1           0       -0.515707    0.902955   -0.363063
      6         -1           0       -0.352226    0.616714   -1.307171
      7          1           0       -1.330257    2.329119   -0.937662
 ---------------------------------------------------------------------
                    Distance matrix (angstroms):
                    1          2          3          4          5
     1  C    0.000000
     2  H    1.093250   0.000000
     3  H    1.093259   1.787952   0.000000
     4  H    1.093287   1.787838   1.787773   0.000000
     5  H    1.101406   1.789450   1.789422   1.789210   0.000000
     6  X    1.487648   2.503282   1.780217   1.780204   1.000000
     7  H    2.841406   3.364370   3.363829   3.363514   1.740000
                    6          7
     6  X    0.000000
     7  H    2.006343   0.000000
 Stoichiometry    CH5(2)
 Framework group  C1[X(CH5)]
 Deg. of freedom    12
 Full point group                 C1      NOp   1
 RotChk:  IX=2 Diff= 3.38D-16
 Largest Abelian subgroup         C1      NOp   1
 Largest concise Abelian subgroup C1      NOp   1
                         Standard orientation:                         
 ---------------------------------------------------------------------
 Center     Atomic      Atomic             Coordinates (Angstroms)
 Number     Number       Type             X           Y           Z
 ---------------------------------------------------------------------
      1          6           0       -0.260197    0.000018    0.000041
      2          1           0       -0.620973    0.973454    0.342764
      3          1           0       -0.620334   -0.784026    0.671450
      4          1           0       -0.619929   -0.189969   -1.014737
      5          1           0        0.841209    0.000415    0.000202
      6          1           0        2.581209    0.000016    0.000077
 ---------------------------------------------------------------------
 Rotational constants (GHZ):    156.8800845     46.4764852     46.4748738
 Leave Link  202 at Thu Sep  5 23:08:40 2019, MaxMem=  2684354560 cpu:         0.1
 (Enter /soft/gaussian/09-e.01/g09/l601.exe)
 Copying SCF densities to generalized density rwf, IOpCl= 1 IROHF=0.

 **********************************************************************

            Population analysis using the SCF density.

 **********************************************************************

 Orbital symmetries:
 Alpha Orbitals:
       Occupied  (A) (A) (A) (A) (A) (A)
       Virtual   (A) (A) (A) (A) (A) (A) (A) (A) (A) (A) (A) (A)
                 (A) (A) (A) (A) (A) (A) (A)
 Beta  Orbitals:
       Occupied  (A) (A) (A) (A) (A)
       Virtual   (A) (A) (A) (A) (A) (A) (A) (A) (A) (A) (A) (A)
                 (A) (A) (A) (A) (A) (A) (A) (A)
 The electronic state is 2-A.
 Alpha  occ. eigenvalues --  -10.16928  -0.69349  -0.40712  -0.39141  -0.39137
 Alpha  occ. eigenvalues --   -0.29920
 Alpha virt. eigenvalues --    0.12533   0.17508   0.17509   0.21874   0.53194
 Alpha virt. eigenvalues --    0.53195   0.53195   0.76005   0.89612   0.89617
 Alpha virt. eigenvalues --    0.93449   0.96412   1.14490   1.65328   1.65329
 Alpha virt. eigenvalues --    2.23266   2.24027   2.24031   4.19796
  Beta  occ. eigenvalues --  -10.16799  -0.69029  -0.39207  -0.39059  -0.39055
  Beta virt. eigenvalues --   -0.08078   0.12792   0.17581   0.17583   0.23431
  Beta virt. eigenvalues --    0.53183   0.53184   0.53982   0.89718   0.89723
  Beta virt. eigenvalues --    0.92727   0.93621   0.97032   1.14995   1.65702
  Beta virt. eigenvalues --    1.65703   2.23681   2.24243   2.24247   4.20082
          Condensed to atoms (all electrons):
               1          2          3          4          5          6
     1  C    5.108941   0.382902   0.382904   0.382890   0.371836  -0.017414
     2  H    0.382902   0.537762  -0.026342  -0.026352  -0.027206   0.000515
     3  H    0.382904  -0.026342   0.537779  -0.026359  -0.027213   0.000515
     4  H    0.382890  -0.026352  -0.026359   0.537843  -0.027235   0.000516
     5  H    0.371836  -0.027206  -0.027213  -0.027235   0.559246   0.014689
     6  H   -0.017414   0.000515   0.000515   0.000516   0.014689   1.001136
          Atomic-Atomic Spin Densities.
               1          2          3          4          5          6
     1  C    0.098475  -0.004097  -0.004094  -0.004096   0.009297  -0.023850
     2  H   -0.004097   0.000223   0.000729   0.000730   0.000983   0.000852
     3  H   -0.004094   0.000729   0.000216   0.000729   0.000984   0.000852
     4  H   -0.004096   0.000730   0.000729   0.000216   0.000985   0.000853
     5  H    0.009297   0.000983   0.000984   0.000985  -0.036689  -0.006186
     6  H   -0.023850   0.000852   0.000852   0.000853  -0.006186   0.988216
 Mulliken charges and spin densities:
               1          2
     1  C   -0.612058   0.071635
     2  H    0.158720  -0.000579
     3  H    0.158715  -0.000583
     4  H    0.158697  -0.000583
     5  H    0.135883  -0.030626
     6  H    0.000043   0.960737
 Sum of Mulliken charges =   0.00000   1.00000
 Mulliken charges and spin densities with hydrogens summed into heavy atoms:
               1          2
     1  C    0.000000   1.000000
 Electronic spatial extent (au):  <R**2>=             64.7401
 Charge=              0.0000 electrons
 Dipole moment (field-independent basis, Debye):
    X=             -0.1012    Y=             -0.0001    Z=             -0.0001  Tot=              0.1012
 Quadrupole moment (field-independent basis, Debye-Ang):
   XX=             -9.7889   YY=             -9.5182   ZZ=             -9.5190
   XY=             -0.0001   XZ=             -0.0004   YZ=             -0.0000
 Traceless Quadrupole moment (field-independent basis, Debye-Ang):
   XX=             -0.1802   YY=              0.0905   ZZ=              0.0897
   XY=             -0.0001   XZ=             -0.0004   YZ=             -0.0000
 Octapole moment (field-independent basis, Debye-Ang**2):
  XXX=             -3.4566  YYY=              0.2936  ZZZ=             -0.4753  XYY=             -1.5896
  XXY=              0.0006  XXZ=              0.0005  XZZ=             -1.5884  YZZ=             -0.2943
  YYZ=              0.4746  XYZ=             -0.0001
 Hexadecapole moment (field-independent basis, Debye-Ang**3):
 XXXX=            -73.3083 YYYY=            -16.4305 ZZZZ=            -16.4302 XXXY=             -0.0005
 XXXZ=             -0.0011 YYYX=             -0.2427 YYYZ=             -0.0005 ZZZX=              0.3902
 ZZZY=              0.0004 XXYY=            -14.6414 XXZZ=            -14.6427 YYZZ=             -5.4769
 XXYZ=              0.0001 YYXZ=             -0.3913 ZZXY=              0.2422
 N-N= 1.526398307772D+01 E-N=-1.245625274321D+02  KE= 4.059034871602D+01
                          Isotropic Fermi Contact Couplings
        Atom                 a.u.       MegaHertz       Gauss      10(-4) cm-1
     1  C(13)              0.03122      35.10088      12.52487      11.70839
     2  H(1)              -0.00034      -1.53996      -0.54950      -0.51367
     3  H(1)              -0.00035      -1.54852      -0.55255      -0.51653
     4  H(1)              -0.00035      -1.55133      -0.55355      -0.51747
     5  H(1)              -0.00119      -5.32142      -1.89882      -1.77504
     6  H(1)               0.29839    1333.78181     475.92650     444.90172
 --------------------------------------------------------
       Center         ----  Spin Dipole Couplings  ----
                      3XX-RR        3YY-RR        3ZZ-RR
 --------------------------------------------------------
     1   Atom        0.093948     -0.046975     -0.046973
     2   Atom        0.005743      0.000994     -0.006737
     3   Atom        0.005743     -0.002108     -0.003635
     4   Atom        0.005742     -0.007497      0.001755
     5   Atom        0.071546     -0.035773     -0.035773
     6   Atom       -0.003843      0.001922      0.001922
 --------------------------------------------------------
                        XY            XZ            YZ
 --------------------------------------------------------
     1   Atom        0.000039      0.000036     -0.000000
     2   Atom       -0.005336     -0.001878      0.003107
     3   Atom        0.004298     -0.003678     -0.004902
     4   Atom        0.001042      0.005561      0.001795
     5   Atom       -0.000003     -0.000003     -0.000000
     6   Atom        0.000001      0.000000     -0.000000
 --------------------------------------------------------


 ---------------------------------------------------------------------------------
              Anisotropic Spin Dipole Couplings in Principal Axis System
 ---------------------------------------------------------------------------------

       Atom             a.u.   MegaHertz   Gauss  10(-4) cm-1        Axes

              Baa    -0.0470    -6.304    -2.249    -2.103 -0.0003  0.9858  0.1681
     1 C(13)  Bbb    -0.0470    -6.303    -2.249    -2.103 -0.0002 -0.1681  0.9858
              Bcc     0.0939    12.607     4.498     4.205  1.0000  0.0003  0.0003
 
              Baa    -0.0078    -4.178    -1.491    -1.394 -0.0001 -0.3321  0.9432
     2 H(1)   Bbb    -0.0020    -1.082    -0.386    -0.361  0.5884  0.7626  0.2686
              Bcc     0.0099     5.261     1.877     1.755  0.8085 -0.5551 -0.1954
 
              Baa    -0.0078    -4.179    -1.491    -1.394 -0.0002  0.6505  0.7595
     3 H(1)   Bbb    -0.0020    -1.082    -0.386    -0.361 -0.5885  0.6140 -0.5260
              Bcc     0.0099     5.262     1.877     1.755  0.8085  0.4471 -0.3827
 
              Baa    -0.0078    -4.180    -1.491    -1.394 -0.0001  0.9829 -0.1840
     4 H(1)   Bbb    -0.0020    -1.082    -0.386    -0.361 -0.5886  0.1487  0.7946
              Bcc     0.0099     5.262     1.878     1.755  0.8084  0.1084  0.5785
 
              Baa    -0.0358   -19.087    -6.811    -6.367  0.0000  0.9612  0.2758
     5 H(1)   Bbb    -0.0358   -19.087    -6.811    -6.367  0.0000 -0.2758  0.9612
              Bcc     0.0715    38.174    13.621    12.733  1.0000 -0.0000 -0.0000
 
              Baa    -0.0038    -2.050    -0.732    -0.684  1.0000 -0.0002 -0.0001
     6 H(1)   Bbb     0.0019     1.025     0.366     0.342  0.0002  0.9997  0.0255
              Bcc     0.0019     1.025     0.366     0.342  0.0001 -0.0255  0.9997
 

 ---------------------------------------------------------------------------------

 No NMR shielding tensors so no spin-rotation constants.
 Leave Link  601 at Thu Sep  5 23:08:40 2019, MaxMem=  2684354560 cpu:         3.2
 (Enter /soft/gaussian/09-e.01/g09/l9999.exe)
 1\1\GINC-B442\POpt\UB3LYP\6-31G(d)\C1H5(2)\ELLIOTT\05-Sep-2019\1\\#P b
 3lyp/6-31g* # SCF=(xqc) # POpt=() # int=ultrafine\\comment:\\0,2\C\H,1
 ,R1\H,1,R2,2,A2\H,1,R3,2,A3,3,D3,0\H,1,R4,2,A4,3,D4,0\X,5,R5,1,A5,2,D5
 ,0\H,5,R6,6,A6,1,D6,0\\R1=1.09325026\R2=1.09325867\A2=109.71438559\R3=
 1.09328718\A3=109.70193107\D3=120.56927377\R4=1.10140647\A4=109.246685
 77\D4=240.26788739\A6=89.96401283\D6=180.00057311\A5=90.\D5=180.\R5=1.
 \R6=1.74\\Version=ES64L-G09RevE.01\State=2-A\HF=-41.0169131\S2=0.75069
 7\S2-1=0.\S2A=0.75\RMSD=1.855e-09\RMSF=1.194e-03\Dipole=0.0186183,-0.0
 326886,0.0131007\Quadrupole=0.0230008,-0.0684107,0.0454099,0.0769431,-
 0.0311059,0.0542605\PG=C01 [X(C1H5)]\\@


 MATERIAL COPIED FROM ONE SCHOLARLY BOOK WITHOUT CREDIT COMPRISES PLAGIARISM.
 MATERIAL COPIED FROM TWO SCHOLARLY BOOKS COMPRISES AN ESSAY.
 MATERIAL COPIED FROM THREE SCHOLARLY BOOKS COMPRISES A DISSERTATION.
 MATERIAL COPIED FROM FOUR SCHOLARLY BOOKS COMPRISES A FIFTH SCHOLARLY BOOK.

                               -- C&EN, 25 FEB 1980
 Job cpu time:       0 days  0 hours  2 minutes 14.2 seconds.
 File lengths (MBytes):  RWF=     72 Int=      0 D2E=      0 Chk=      2 Scr=      2
 Normal termination of Gaussian 09 at Thu Sep  5 23:08:40 2019.
