[Molden Format]
[Molpro variables]
_NUMVAR=  709.0000000000000    
_EV2006= 0.3674930886769165E-01
_EV= 0.3674932534394180E-01
_KJOULE= 0.3808798324128737E-03
_KJOULE/MOL= 0.3808798324128737E-03
_CM= 0.4556335267302901E-05
_CM-1= 0.4556335267302901E-05
_KCAL= 0.1593601117815568E-02
_KCAL/MOL= 0.1593601117815568E-02
_KELVIN2006= 0.3166828861084835E-05
_KELVIN= 0.3166814820820034E-05
_HERTZ2006= 0.1519829850815779E-15
_HERTZ= 0.1519829846011223E-15
_HZ2006= 0.1519829850815779E-15
_HZ= 0.1519829846011223E-15
_TOA2006= 0.5291772490000000    
_TOA= 0.5291772090000000    
_TOANG2006= 0.5291772490000000    
_TOANG= 0.5291772090000000    
_TORAD= 0.1745329251994330E-01
_TOCM=  219474.6306700000    
_TODEBYE=  2.541580000000000    
_TOEV2006=  27.21139610000000    
_TOEV=  27.21138390000000    
_TOHERTZ2006=  6579683899900000.    
_TOHERTZ=  6579683920700000.    
_TOHZ2006=  6579683899900000.    
_TOHZ=  6579683920700000.    
_TOK2006=  315773.3000000000    
_TOK=  315774.7000000000    
_TOKCAL=  627.5096000000000    
_TOKELVIN2006=  315773.3000000000    
_TOKELVIN=  315774.7000000000    
_TOKJ=  2625.500000000000    
_TOKJOULE=  2625.500000000000    
_ANG2006=  1.889725988578923    
_ANG=  1.889726131421507    
_ANGSTROM2006=  1.889725988578923    
_ANGSTROM=  1.889726131421507    
_IGNORE_UNDEF=  2.000000000000000    
_STRICTCHECK=  0.000000000000000    
_SEW_ONEEL=  0.000000000000000    
_CPPDONE=FALSE
_DKROLL_DONE=  0.000000000000000    
_FOCKDONE=  0.000000000000000    
_GRADONE=FALSE
_HESSDONE=TRUE
_INTDONE=TRUE
_SCFDONE=FALSE
_MODUL_CUDA=FALSE
_MODUL_SLATER=FALSE
_MODUL_MRCC=FALSE
_MRCC_EXEC=
_FITC_AO_SAVED=FALSE
_FITC_MO_SAVED=FALSE
_SHARED_FS=TRUE
_LSTYP=SEWARD
_INTYP=INTS
_GEOMTYP=ZMAT
_GRADTYP=ALASKA
_DIRECT=FALSE
_SYNCM=  0.000000000000000    
_BASIS=CC-PVDZ
_ZORIENT=  1.000000000000000    
_NELEC=  16.00000000000000    
_SPIN=  0.000000000000000    
!SPIN=  0.000000000000000    
_OPTCONV= 0.5936780176424250E-03
_QSDSTEP=  0.000000000000000    
_QSDIRC=  0.000000000000000    
_PROGRAM=FREQ
_CPUSTEP=  0.000000000000000    
_SYSSTEP=  0.000000000000000    
_WALLSTEP= 0.8000000000000000E-01
!DFMP2=  0.000000000000000    
!DFSCF=  0.000000000000000    
!SCSGRD=  0.000000000000000    
_BASINP=  610.0000000000000    
_CPUTOT=  104.9300000000000    
_DFTEXFAC=  1.000000000000000    
_DMX= 0.4249487268809574E-15
_DMY= 0.2249759277143288    
_DMZ= 0.2520068584278508    
_FREQUENCIES= -507.8355508365433    
_EMP2= -78.14908315949674    
_ENERGR= -77.92338778428852    
_ENERGU= -78.19677258338265    
_ENERGY= -78.14908315949674    
_ENUC=  30.32492920183421    
_FREQSTEP=  31.00000000000000    
!RS2GRSTATE=  1.000000000000000    
!RS2GRSYM=  1.000000000000000    
_GRADENERG= -78.14907806938135    
_GRADEXFAC=  9999.000000000000    
_GRADMETHOD=TRUE
_GRADRECORD=  5200.100000000000    
_VIRIAL= 0.4238782178613394E-01
!GRID_FREEZE= -1.000000000000000    
_ITERATIONS=  0.000000000000000    
_LASTNELEC=  4.000000000000000    
_LASTSPIN=  0.000000000000000    
_LASTSYM=  1.000000000000000    
_MPP_PROG=  1.000000000000000    
_MSENERGY= -78.14908315949674    
_NPROC_MPP=  4.000000000000000    
_NPROC_SMP=  1.000000000000000    
_NUMSTEP=  0.000000000000000    
_OPTCONVMX= 0.3108513190343463E-03
_OPTCONVRMS= 0.5397072887658409E-04
_OPTGRAD= 0.3094881673221352E-03
_OPTGRADMX= 0.2044305621603244E-03
_OPTGRADRMS= 0.2813528793837593E-04
_OPTSTEP=  10.00000000000000    
_ORBITAL=  2143.200000000000    
_PI=  3.141592653589793    
!MCACT=  4.000000000000000    
!MCCLOSED=  6.000000000000000    
!MCFREEZE=  0.000000000000000    
!MCMS2=  0.000000000000000    
!MCNEL=  4.000000000000000    
!MCNSTSYM=  1.000000000000000    
!MCSTATE=  1.000000000000000    
!MCSYM=  1.000000000000000    
!MCWEIGHT=  1.000000000000000    
_SEIG_MIN= 0.4118819637638522E-02
_SEWPROP=TRUE
_STATUS=  1.000000000000000    
_SYSTOT=  7.600000000000001    
_VERSION=  2010001.000000000    
_WALLTOT=  364.9800000000000    
_ZPE= 0.3782298638730085E-01
_DATE=06-Sep-19
_LASTORB=MCSCF
_MACHINE=Linux-2.6.34-12-desktop/tt106(x86_64) 64 bit mpp version
_OUTPUT=/home/carlo/qm/combustion/barrierless/c2h4_c2h3_h/dist_3.0/molpro.xml
_PGROUP=C1
_TIME=03:18:24
_LIBMOL=/programs/molpro2010p/bin/../lib/
!SURFREC=  0.000000000000000    
!POLYREC=  0.000000000000000    
!DIPREC=  0.000000000000000    
!VSCFREC=  0.000000000000000    
!VCIREC=  0.000000000000000    
!PVCIREC=  0.000000000000000    
!VMP2REC=  0.000000000000000    
!VMCSCFREC=  0.000000000000000    
!GAREC=  0.000000000000000    
!SCFORB=  21002.00000000000    
!MCORB=  21432.00000000000    
!CIOCC=  10.00000000000000    
!CICORE=  2.000000000000000    
!CICLOS=  6.000000000000000    
!CIISTSYM=  1.000000000000000    
!CIISTMS2=  0.000000000000000    
!CIISTNEL=  12.00000000000000    
!NEWMOL=  0.000000000000000    
!NEWSYM=  0.000000000000000    
_SLFILES=slscratch
_NGSSTO=  9.000000000000000    
_SIN=SIN
_COS=COS
_TAN=TAN
_ACOS=ACOS
_ASIN=ASIN
_ATAN=ATAN
_COSH=COSH
_SINH=SINH
_TANH=TANH
_ABS=ABS
_MOD=MOD
_ERF=ERF
_REFC=REFC
_ERFC=ERFC
_HYPOT=HYPOT
_J0=J0
_J1=J1
_JN=JN
_GAMMA=GAMMA
_LGAMMA=LGAMMA
_Y0=Y0
_Y1=Y1
_YN=YN
_EXP=EXP
_LOG=LOG
_LOG10=LOG10
_SQRT=SQRT
_INT=INT
_NINT=NINT
_MAX=MAX
_MIN=MIN
_COSMO=  0.000000000000000    
_COSMOIT=  0.000000000000000    
_COSMOES=  0.000000000000000    
_COSMOEDS=  0.000000000000000    
_COSMOEC=  0.000000000000000    
_COSMOEDCORR=  0.000000000000000    
_FEPSI=  1.000000000000000    
_SL_IsMM=  0.000000000000000    
_SL_NSYM=  0.000000000000000    
_SL_System_BitSw=  0.000000000000000    
_SL_Unique_atoms=  0.000000000000000    
_SL_GRAD=  0.000000000000000    
_SL_MAXUPD_Hess=  5.000000000000000    
_SL_N_PRINT_COD=  5.000000000000000    
_SL_PRINT_CODES=  0.000000000000000    
_SL_BasType=  0.000000000000000    
_SL_Energy_Pred=  0.000000000000000    
_SL_New_Coords=  0.000000000000000    
_SL_Total_Nuclea=  0.000000000000000    
_SL_Highest_Mltp=  0.000000000000000    
_SL_Ref_Geom=  0.000000000000000    
!LATTICE= -1.000000000000000    
!NEWLATTICE=  0.000000000000000    
!LATGRAD_VAR=FALSE
!SEW_LATTICE=  1.000000000000000    
!LOCAL=  0.000000000000000    
!SAVEDOM= -1.000000000000000    
!RESTDOM= -1.000000000000000    
!SAVEDOM_HF= -1.000000000000000    
!RESTDOM_HF= -1.000000000000000    
!HESSREC=  5300.200000000000    
!FREQREC=  5400.200000000000    
!NMODREC=  5450.200000000000    
!GTASKS=  0.000000000000000    
!HTASKS=  5500.200000000000    
!THRCHG= 0.1000000000000000    
!DEBUG= -1.000000000000000    
!CFIT_CPHF=  0.000000000000000    
!RDOMAUX_CPHF=  3.000000000000000    
!THRAO_CPHF= 0.1000000000000000E-09
!THRMO_CPHF= 0.1000000000000000E-09
!THROV_CPHF= 0.1000000000000000E-11
!THRSW_CPHF= 0.1000000000000000E-09
!THRPROD_CPHF= 0.1000000000000000E-09
!THRAOPR_CPHF= 0.1000000000000000E-11
!CFIT_SCFGRD=  0.000000000000000    
!RDOMAUX_SCFGRD=  5.000000000000000    
!THRAO_SCFGRD= 0.1000000000000000E-09
!THRMO_SCFGRD= 0.1000000000000000E-09
!THROV_SCFGRD= 0.1000000000000000E-11
!THRSW_SCFGRD= 0.1000000000000000E-09
!THRPROD_SCFGRD= 0.1000000000000000E-09
!THRAOPR_SCFGRD= 0.1000000000000000E-11
!LOCFIT_SCF=  0.000000000000000    
!LOCFIT_MP2= -1.000000000000000    
_RIDOM=  0.000000000000000    
!CC2_METHOD=  0.000000000000000    
_BASIS2006=FALSE
_SVDDEL= -1.000000000000000    
_SVDDELA= -1.000000000000000    
_SVDDELP= -1.000000000000000    
_SVDDELF= -1.000000000000000    
_SVDDELS= -1.000000000000000    
_SVDDEL_ABS= -1.000000000000000    
_SVDDELA_ABS= -1.000000000000000    
_SVDDELP_ABS= -1.000000000000000    
_SVDDELF_ABS= -1.000000000000000    
_SVDDELS_ABS= -1.000000000000000    
_MAXBASIS=  0.000000000000000    
!OPT_CONICAL=  0.000000000000000    
!CLEARSP_JGRID=  0.000000000000000    
RCC1=  1.333157131668232    
RCC2=  1.099859996727622    
RCC3=  1.094614444850094    
RCH2=  1.091581804350850    
ACCC1=  120.8563339898868    
AHCC1=  121.8815295133198    
AHCC2=  118.8099017935009    
AHCC3=  136.0430292619583    
B1=  179.9999773633701    
B2=  180.0000108915332    
B3=  180.0000061851810    
RCH1=  3.000000000000000    
GX1=-0.2335547707568757E-07
GY1= 0.5088955982939718    
GZ1= -1.078323555805847    
GX2= 0.6200423412080320E-07
GY2=-0.3194792504484172    
GZ2=  1.300894176378428    
GX3=-0.2799898158768781E-06
GY3=  1.015039829398125    
GZ3=  2.894301673690028    
GX4=-0.2227043549664364E-06
GY4= -2.337513312820524    
GZ4=  1.755118573459760    
GX5=-0.7510072144873672E-08
GY5= -3.284044103284587    
GZ5= -5.291777256297261    
GX6= 0.4965081632699448E-07
GY6=  2.349359666619521    
GZ6= -2.009879953069784    
C1X1=  0.000000000000000    
C1Y1= 0.5088955982939718    
C1Z1= -1.078323555805847    
C2X2=  0.000000000000000    
C2Y2=-0.3194792504484172    
C2Z2=  1.300894176378428    
H3X3=  0.000000000000000    
H3Y3=  1.015039829398125    
H3Z3=  2.894301673690028    
H4X4=  0.000000000000000    
H4Y4= -2.337513312820524    
H4Z4=  1.755118573459760    
H5X5=  0.000000000000000    
H5Y5= -3.284044103284587    
H5Z5= -5.291777256297261    
H6X6=  0.000000000000000    
H6Y6=  2.349359666619521    
H6Z6= -2.009879953069784    
CBSEN= -78.14908315949674    
[Atoms] Angs
C     1    6         0.0000000000        0.2692959524       -0.5706242497
C     2    6         0.0000000000       -0.1690611381        0.6884035495
H     3    1         0.0000000000        0.5371359439        1.5315984817
H     4    1         0.0000000000       -1.2369587709        0.9287687482
H     5    1         0.0000000000       -1.7378412928       -2.8002879191
H     6    1         0.0000000000        1.2432275913       -1.0635826640
[GTO]
  1 0
 s    9  1.00
  0.6665000000D+04  0.6920001793D-03
  0.1000000000D+04  0.5329001381D-02
  0.2280000000D+03  0.2707700701D-01
  0.6471000000D+02  0.1017180264D+00
  0.2106000000D+02  0.2747400712D+00
  0.7495000000D+01  0.4485641162D+00
  0.2797000000D+01  0.2850740738D+00
  0.5215000000D+00  0.1520400394D-01
  0.1596000000D+00 -0.3191000827D-02
 s    9  1.00
  0.6665000000D+04 -0.1460000642D-03
  0.1000000000D+04 -0.1154000508D-02
  0.2280000000D+03 -0.5725002519D-02
  0.6471000000D+02 -0.2331201026D-01
  0.2106000000D+02 -0.6395502813D-01
  0.7495000000D+01 -0.1499810660D+00
  0.2797000000D+01 -0.1272620560D+00
  0.5215000000D+00  0.5445292395D+00
  0.1596000000D+00  0.5804962554D+00
 s    9  1.00
  0.6665000000D+04  0.0000000000D+00
  0.1000000000D+04  0.0000000000D+00
  0.2280000000D+03  0.0000000000D+00
  0.6471000000D+02  0.0000000000D+00
  0.2106000000D+02  0.0000000000D+00
  0.7495000000D+01  0.0000000000D+00
  0.2797000000D+01  0.0000000000D+00
  0.5215000000D+00  0.0000000000D+00
  0.1596000000D+00  0.1000000000D+01
 p    4  1.00
  0.9439000000D+01  0.3810902127D-01
  0.2002000000D+01  0.2094801169D+00
  0.5456000000D+00  0.5085572839D+00
  0.1517000000D+00  0.4688422617D+00
 p    4  1.00
  0.9439000000D+01  0.0000000000D+00
  0.2002000000D+01  0.0000000000D+00
  0.5456000000D+00  0.0000000000D+00
  0.1517000000D+00  0.1000000000D+01
 d    1  1.00
  0.5500000000D+00  0.1000000000D+01
  
  2 0
 s    9  1.00
  0.6665000000D+04  0.6920001793D-03
  0.1000000000D+04  0.5329001381D-02
  0.2280000000D+03  0.2707700701D-01
  0.6471000000D+02  0.1017180264D+00
  0.2106000000D+02  0.2747400712D+00
  0.7495000000D+01  0.4485641162D+00
  0.2797000000D+01  0.2850740738D+00
  0.5215000000D+00  0.1520400394D-01
  0.1596000000D+00 -0.3191000827D-02
 s    9  1.00
  0.6665000000D+04 -0.1460000642D-03
  0.1000000000D+04 -0.1154000508D-02
  0.2280000000D+03 -0.5725002519D-02
  0.6471000000D+02 -0.2331201026D-01
  0.2106000000D+02 -0.6395502813D-01
  0.7495000000D+01 -0.1499810660D+00
  0.2797000000D+01 -0.1272620560D+00
  0.5215000000D+00  0.5445292395D+00
  0.1596000000D+00  0.5804962554D+00
 s    9  1.00
  0.6665000000D+04  0.0000000000D+00
  0.1000000000D+04  0.0000000000D+00
  0.2280000000D+03  0.0000000000D+00
  0.6471000000D+02  0.0000000000D+00
  0.2106000000D+02  0.0000000000D+00
  0.7495000000D+01  0.0000000000D+00
  0.2797000000D+01  0.0000000000D+00
  0.5215000000D+00  0.0000000000D+00
  0.1596000000D+00  0.1000000000D+01
 p    4  1.00
  0.9439000000D+01  0.3810902127D-01
  0.2002000000D+01  0.2094801169D+00
  0.5456000000D+00  0.5085572839D+00
  0.1517000000D+00  0.4688422617D+00
 p    4  1.00
  0.9439000000D+01  0.0000000000D+00
  0.2002000000D+01  0.0000000000D+00
  0.5456000000D+00  0.0000000000D+00
  0.1517000000D+00  0.1000000000D+01
 d    1  1.00
  0.5500000000D+00  0.1000000000D+01
  
  3 0
 s    4  1.00
  0.1301000000D+02  0.1968498999D-01
  0.1962000000D+01  0.1379769298D+00
  0.4446000000D+00  0.4781477569D+00
  0.1220000000D+00  0.5012397451D+00
 s    4  1.00
  0.1301000000D+02  0.0000000000D+00
  0.1962000000D+01  0.0000000000D+00
  0.4446000000D+00  0.0000000000D+00
  0.1220000000D+00  0.1000000000D+01
 p    1  1.00
  0.7270000000D+00  0.1000000000D+01
  
  4 0
 s    4  1.00
  0.1301000000D+02  0.1968498999D-01
  0.1962000000D+01  0.1379769298D+00
  0.4446000000D+00  0.4781477569D+00
  0.1220000000D+00  0.5012397451D+00
 s    4  1.00
  0.1301000000D+02  0.0000000000D+00
  0.1962000000D+01  0.0000000000D+00
  0.4446000000D+00  0.0000000000D+00
  0.1220000000D+00  0.1000000000D+01
 p    1  1.00
  0.7270000000D+00  0.1000000000D+01
  
  5 0
 s    4  1.00
  0.1301000000D+02  0.1968498999D-01
  0.1962000000D+01  0.1379769298D+00
  0.4446000000D+00  0.4781477569D+00
  0.1220000000D+00  0.5012397451D+00
 s    4  1.00
  0.1301000000D+02  0.0000000000D+00
  0.1962000000D+01  0.0000000000D+00
  0.4446000000D+00  0.0000000000D+00
  0.1220000000D+00  0.1000000000D+01
 p    1  1.00
  0.7270000000D+00  0.1000000000D+01
  
  6 0
 s    4  1.00
  0.1301000000D+02  0.1968498999D-01
  0.1962000000D+01  0.1379769298D+00
  0.4446000000D+00  0.4781477569D+00
  0.1220000000D+00  0.5012397451D+00
 s    4  1.00
  0.1301000000D+02  0.0000000000D+00
  0.1962000000D+01  0.0000000000D+00
  0.4446000000D+00  0.0000000000D+00
  0.1220000000D+00  0.1000000000D+01
 p    1  1.00
  0.7270000000D+00  0.1000000000D+01
 
 
[MO]
 Sym=      1.1
 Ene=     -11.2491
 Spin= Alpha
 Occup=    2.000000
1 0.99738290938511
2 0.006560703227902
3 -0.007206331053068
4 0.0
5 0.001264909129687
6 0.000666420059480
7 0.0
8 -0.000897801978316
9 -0.000928620360456
10 -0.000658575569196
11 0.000328547849821
12 0.000330027719375
13 0.0
14 0.0
15 -0.001211323882910
16 0.085495718448221
17 -0.000664250749677
18 0.001712818111496
19 0.0
20 -0.000204421328055
21 0.000442993787344
22 0.0
23 0.001052500674873
24 -0.001176442905733
25 0.000259592670261
26 0.000163424068915
27 -0.000423016739176
28 0.0
29 0.0
30 -0.000372893283763
31 0.000149236464027
32 0.000080698119338
33 0.0
34 -0.000198613587801
35 -0.000152378274645
36 0.000037295658722
37 0.000796744884701
38 0.0
39 0.000006130845022
40 -0.000131112852844
41 -0.000306575518049
42 0.000191550843103
43 0.0
44 0.000016936912432
45 0.000023264000810
46 -0.001436747836009
47 0.002231725608515
48 0.0
49 0.000871809049524
50 -0.000065415905979
 Sym=      2.1
 Ene=     -11.2396
 Spin= Alpha
 Occup=    2.000000
1 -0.086526137551083
2 -0.001459442252828
3 0.003229948170132
4 0.0
5 -0.000058050450910
6 -0.000404646423895
7 0.0
8 -0.000488626466749
9 0.001219279344597
10 0.000365905087434
11 -0.000141594278835
12 -0.000224310808599
13 0.0
14 0.0
15 0.000234345262529
16 0.99775668651946
17 0.008486985974393
18 -0.009550431423734
19 0.0
20 -0.000021976168269
21 -0.000032161292869
22 0.0
23 -0.000152745853402
24 0.000651644057294
25 -0.000745862819216
26 0.000258349115944
27 0.000487513703272
28 0.0
29 0.0
30 -0.000070131582999
31 -0.000575193470947
32 0.001471904827260
33 0.0
34 0.000413244340653
35 0.000371319016177
36 -0.000566076315375
37 0.001500005044411
38 0.0
39 -0.000540353801154
40 0.000051376598546
41 0.000037655640185
42 -0.000041468464969
43 0.0
44 -0.000001011774605
45 -0.000010775453149
46 0.000280014601959
47 0.000036817259818
48 0.0
49 -0.000194768603356
50 0.000062907838318
 Sym=      3.1
 Ene=      -1.0164
 Spin= Alpha
 Occup=    2.000000
1 -0.017605670959849
2 0.55913213144830
3 -0.12531378184064
4 0.0
5 -0.025458380040177
6 0.23195133590939
7 0.0
8 0.008312370225363
9 -0.059101105675971
10 -0.010411071529500
11 -0.008939446997279
12 0.019350518526779
13 0.0
14 0.0
15 -0.012910632234233
16 -0.023428635293600
17 0.65787743973712
18 -0.18748934104439
19 0.0
20 0.064158691269647
21 -0.16544333471268
22 0.0
23 -0.021804511077054
24 0.068587787925668
25 -0.007211082397654
26 -0.007037726222053
27 0.014248808619707
28 0.0
29 0.0
30 -0.011885803405378
31 0.21030634468204
32 -0.10362425434475
33 0.0
34 -0.011399522617948
35 -0.017024624960261
36 0.21502277726040
37 -0.097392333589456
38 0.0
39 0.019072166416840
40 -0.006571607881345
41 -0.002712940245063
42 -0.002970129196299
43 0.0
44 0.000153845508068
45 0.000174212836183
46 0.16582866156533
47 -0.070957269309869
48 0.0
49 -0.011439162781145
50 0.009498519108261
 Sym=      4.1
 Ene=      -0.7594
 Spin= Alpha
 Occup=    2.000000
1 -0.011540952726923
2 0.51810688958972
3 -0.090688092612482
4 0.0
5 0.23348847926282
6 -0.10464258049236
7 0.0
8 -0.053523426868469
9 0.026657826370139
10 -0.002577134469662
11 0.008013233050166
12 -0.005436098580503
13 0.0
14 0.0
15 -0.002621997765964
16 0.011068978705016
17 -0.37993175571377
18 0.056903110767413
19 0.0
20 0.15049189364436
21 -0.26197079120663
22 0.0
23 -0.033282281629676
24 0.059013290052351
25 0.000763528463729
26 -0.008285934688369
27 0.007522406224639
28 0.0
29 0.0
30 -0.012842510368521
31 -0.28636767944876
32 0.10062181249376
33 0.0
34 0.014639503792399
35 0.010690365542042
36 -0.34970132080847
37 0.13780232156000
38 0.0
39 -0.022159457290346
40 0.000300296251518
41 -0.003529170044573
42 -0.003979182369204
43 0.0
44 0.000220773571126
45 0.000174756391609
46 0.48432975550855
47 -0.17898240211477
48 0.0
49 -0.025303284271958
50 0.013457674370547
 Sym=      5.1
 Ene=      -0.6123
 Spin= Alpha
 Occup=    2.000000
1 -0.002549748398469
2 -0.10403996763216
3 0.057012159643314
4 0.0
5 0.35566836020317
6 -0.34453619924046
7 0.0
8 -0.095478295028664
9 0.090945329857468
10 -0.000179675678152
11 0.008295951830519
12 -0.008116276152367
13 0.0
14 0.0
15 0.009192344341356
16 -0.002813552988397
17 0.007854168256195
18 0.018969878401182
19 0.0
20 0.18011418709221
21 0.56042896279165
22 0.0
23 -0.030630082200998
24 -0.12149747985654
25 -0.000797389864473
26 0.010568595536340
27 -0.009771205671867
28 0.0
29 0.0
30 0.014480211060489
31 0.53343447342533
32 -0.15700958133488
33 0.0
34 -0.017094426230001
35 -0.013509516566858
36 -0.041428244343074
37 0.017053010970674
38 0.0
39 0.000381952277859
40 0.009877393112695
41 0.004383104232119
42 0.003658766764251
43 0.0
44 0.000116697981069
45 -0.000190678567881
46 0.37210180034383
47 -0.11254283718953
48 0.0
49 -0.014627836303192
50 0.003678669063436
 Sym=      6.1
 Ene=      -0.5730
 Spin= Alpha
 Occup=    2.000000
1 0.002391102886310
2 -0.030284931361643
3 -0.029489911963544
4 0.0
5 -0.14930373169872
6 0.31911778126285
7 0.0
8 0.030738909270590
9 -0.091781987534889
10 0.001927952083936
11 -0.021368257637786
12 0.019440305553850
13 0.0
14 0.0
15 0.018373541192364
16 0.000889714779532
17 0.033281697390557
18 -0.010008974221120
19 0.0
20 0.59420755411719
21 -0.11266568587799
22 0.0
23 -0.11547541400921
24 0.020861725380546
25 -0.000492183493618
26 -0.018986942806482
27 0.019479126300100
28 0.0
29 0.0
30 0.010889340055316
31 0.32353215398428
32 -0.081554661567539
33 0.0
34 0.000365601123400
35 -0.015287467020012
36 -0.59539825523586
37 0.16273168738452
38 0.0
39 -0.020322919980241
40 0.005743919520565
41 0.006774718654464
42 0.006064364420945
43 0.0
44 -0.000125053873927
45 -0.000118791109738
46 -0.31616974141068
47 0.075672468761649
48 0.0
49 0.009204876460463
50 -0.002128222297277
 Sym=      7.1
 Ene=      -0.3660
 Spin= Alpha
 Occup=    1.899234
1 0.0
2 0.0
3 0.0
4 0.60446098781825
5 0.0
6 0.0
7 -0.014008545331871
8 0.0
9 0.0
10 0.0
11 0.0
12 0.0
13 -0.006731977433818
14 0.028378672352851
15 0.0
16 0.0
17 0.0
18 0.0
19 0.60388306096108
20 0.0
21 0.0
22 0.000902516792511
23 0.0
24 0.0
25 0.0
26 0.0
27 0.0
28 0.009767680987361
29 -0.026428648762510
30 0.0
31 0.0
32 0.0
33 0.013321962283209
34 0.0
35 0.0
36 0.0
37 0.0
38 0.013254017366673
39 0.0
40 0.0
41 0.0
42 0.0
43 0.000662118933785
44 0.0
45 0.0
46 0.0
47 0.0
48 0.014236254897997
49 0.0
50 0.0
 Sym=     10.1
 Ene=       0.2171
 Spin= Alpha
 Occup=    0.100747
1 0.0
2 0.0
3 0.0
4 0.89295676267947
5 0.0
6 0.0
7 -0.035286486855105
8 0.0
9 0.0
10 0.0
11 0.0
12 0.0
13 -0.007226386812119
14 -0.011570012731406
15 0.0
16 0.0
17 0.0
18 0.0
19 -0.85645938540867
20 0.0
21 0.0
22 0.008294337545586
23 0.0
24 0.0
25 0.0
26 0.0
27 0.0
28 0.003086513201119
29 -0.009740826214269
30 0.0
31 0.0
32 0.0
33 -0.011154927934910
34 0.0
35 0.0
36 0.0
37 0.0
38 -0.010948922853155
39 0.0
40 0.0
41 0.0
42 0.0
43 -0.000069552762592
44 0.0
45 0.0
46 0.0
47 0.0
48 0.011771162876516
49 0.0
50 0.0
 Sym=      8.1
 Ene=      -0.2123
 Spin= Alpha
 Occup=    1.295797
1 0.000691791314147
2 0.22707199225549
3 0.079980843777345
4 0.0
5 -0.41738460890312
6 -0.38597374961256
7 0.0
8 -0.023676384220130
9 -0.017667727843638
10 0.002095831904368
11 -0.002699389931908
12 0.000603558027540
13 0.0
14 0.0
15 0.018239104927584
16 -0.001680257066043
17 -0.078915933805355
18 0.023190449698519
19 0.0
20 0.007119813886007
21 0.095039907615543
22 0.0
23 0.044743360728999
24 -0.012710335580460
25 0.000759489431044
26 -0.014469473339583
27 0.013709983908538
28 0.0
29 0.0
30 0.021757961632458
31 0.12271914012820
32 0.010829368096441
33 0.0
34 -0.000418684647917
35 0.000560841300112
36 -0.092365731219019
37 0.016579147476376
38 0.0
39 0.000275345061408
40 0.002645594564921
41 0.66187252133414
42 0.030471080230522
43 0.0
44 0.000285071150058
45 0.000222816262342
46 -0.14689738094670
47 0.018176382027097
48 0.0
49 -0.005061531929417
50 -0.009892811039174
 Sym=      9.1
 Ene=      -0.0918
 Spin= Alpha
 Occup=    0.704222
1 -0.001309935325095
2 -0.26515074790377
3 -0.10940581874065
4 0.0
5 0.46867410641768
6 0.44110045350466
7 0.0
8 0.033972130744318
9 0.007656112229850
10 -0.000580569111437
11 0.002184885591028
12 -0.001604316479590
13 0.0
14 0.0
15 -0.023341937064657
16 0.000696714740839
17 0.078823465168011
18 -0.007158043113165
19 0.0
20 -0.008878372886136
21 -0.10843662183503
22 0.0
23 -0.056360616211845
24 -0.001582959355332
25 -0.002001552197199
26 0.015892800715972
27 -0.013891248518774
28 0.0
29 0.0
30 -0.023356514817682
31 -0.13503390804999
32 -0.001985247772130
33 0.0
34 0.000456193419281
35 0.000294560422271
36 0.094395623524070
37 -0.016122498377354
38 0.0
39 -0.000430855851621
40 -0.003292173833301
41 0.76068340525470
42 -0.033545210612142
43 0.0
44 -0.001026780141927
45 -0.001241260517795
46 0.15240043863589
47 -0.021405720147718
48 0.0
49 0.005137821773246
50 0.010080603945746
 Sym=     11.1
 Ene=       0.2106
 Spin= Alpha
 Occup=    0.000000
1 0.018063024099583
2 -0.060375667221898
3 -0.65564655633293
4 0.0
5 -0.12908800278996
6 0.11015133008713
7 0.0
8 -0.30370739402614
9 0.22264390092713
10 0.004266842132253
11 -0.005942125861610
12 0.001675283729357
13 0.0
14 0.0
15 0.012160609767778
16 0.061367289695638
17 -0.15220044462953
18 -1.72198907309827
19 0.0
20 0.010232169796561
21 -0.25053743960740
22 0.0
23 0.12891169904669
24 -0.50247887235105
25 0.020864636916793
26 -0.019714532332396
27 -0.001150104584397
28 0.0
29 0.0
30 -0.001212011525939
31 0.029772762057909
32 1.41381929386516
33 0.0
34 -0.011304063247206
35 -0.016053960158875
36 0.036492103435977
37 1.04808493958713
38 0.0
39 0.017627208057105
40 -0.005535812858693
41 -0.065030647660177
42 0.038876479132461
43 0.0
44 -0.000021868198601
45 0.004326582857772
46 -0.034755027825156
47 0.91028567136134
48 0.0
49 -0.008050060204779
50 0.012731116367500
 Sym=     12.1
 Ene=       0.2241
 Spin= Alpha
 Occup=    0.000000
1 -0.040945121796960
2 0.15589480390412
3 1.08286038001705
4 0.0
5 0.26348111312790
6 -0.059713120790470
7 0.0
8 0.55012699105633
9 -0.32473045351166
10 -0.010451795965547
11 0.019649058999033
12 -0.009197263033485
13 0.0
14 0.0
15 -0.002071331454715
16 0.025413796151399
17 -0.15665661788617
18 -0.64440033481700
19 0.0
20 0.19253458050266
21 0.035858314941396
22 0.0
23 0.35322225241697
24 -0.14371186475029
25 0.009198278846506
26 -0.003736024590940
27 -0.005462254255565
28 0.0
29 0.0
30 -0.014999222818051
31 -0.011637425492626
32 -0.001739760097821
33 0.0
34 -0.005594738568078
35 -0.000594833991610
36 0.061515875979524
37 1.26119853200873
38 0.0
39 0.014068462671971
40 0.002395308250833
41 0.001490005232206
42 0.013597561723697
43 0.0
44 -0.001673026902185
45 0.000809425952812
46 -0.085040378752084
47 -1.76382529318477
48 0.0
49 0.022396857807466
50 -0.005643634151619
 Sym=     13.1
 Ene=       0.2708
 Spin= Alpha
 Occup=    0.000000
1 -0.023959456932854
2 0.069604646005578
3 0.80558203510494
4 0.0
5 0.090910774528637
6 -0.035578346012494
7 0.0
8 0.77472285195910
9 0.015218721013184
10 -0.017270198785411
11 0.024514473832710
12 -0.007244275047300
13 0.0
14 0.0
15 -0.018073053325217
16 0.010508306092394
17 -0.015553601957546
18 -0.17184091408630
19 0.0
20 -0.38179453119091
21 -0.12921246738164
22 0.0
23 -1.36429442246774
24 -0.40591501271200
25 0.004692253779997
26 0.012825514384571
27 -0.017517768164568
28 0.0
29 0.0
30 -0.024362125314623
31 -0.018143963922047
32 1.93220214057596
33 0.0
34 -0.013248339703673
35 -0.023234053258237
36 0.034168871815205
37 -1.72438080799194
38 0.0
39 -0.020077012599745
40 0.011751752233413
41 0.10061862839411
42 -0.030292978838745
43 0.0
44 -0.006723513732756
45 -0.009520990010125
46 0.062221837861458
47 -1.20158557627888
48 0.0
49 0.018380767178892
50 -0.011189314394384
 Sym=     14.1
 Ene=       0.4578
 Spin= Alpha
 Occup=    0.000000
1 -0.045604551261457
2 0.17634599944782
3 3.71816070753307
4 0.0
5 -0.21992483671437
6 0.19048428367326
7 0.0
8 -1.16027125179641
9 2.70141323974235
10 -0.030733172658029
11 -0.026137856618305
12 0.056871029276334
13 0.0
14 0.0
15 -0.040166992471421
16 0.081641364559480
17 0.063271423759258
18 -3.64120850963331
19 0.0
20 -0.015860229415358
21 0.085525640644459
22 0.0
23 -0.92402577180261
24 3.25254606525329
25 0.055910133747814
26 -0.032183044062880
27 -0.023727089684934
28 0.0
29 0.0
30 0.024365560345994
31 -0.23321101071601
32 -0.65017876137266
33 0.0
34 -0.013084852847135
35 0.004220755258914
36 -0.27171248049549
37 -0.25759588019730
38 0.0
39 0.021530552665560
40 0.007762442555237
41 0.17490833818817
42 -0.12314286408892
43 0.0
44 -0.015398162026445
45 -0.003304150731110
46 -0.088630412290509
47 1.15893546577688
48 0.0
49 0.016559128362107
50 -0.000126326663593
 Sym=     15.1
 Ene=       0.5946
 Spin= Alpha
 Occup=    0.000000
1 -0.18217139010659
2 -0.58588354581594
3 1.03195213910947
4 0.0
5 0.12336313057777
6 -0.44203225290831
7 0.0
8 -0.42873665619273
9 1.31187578592269
10 0.084866616565818
11 -0.052592143945665
12 -0.032274472620152
13 0.0
14 0.0
15 0.13286034069028
16 -0.10834703489437
17 -0.55860024944425
18 -0.35401364347107
19 0.0
20 -0.30065515086117
21 0.67801635701704
22 0.0
23 0.43543990665492
24 -0.44986589028148
25 0.027492563572195
26 0.014300432327778
27 -0.041792995899973
28 0.0
29 0.0
30 -0.031164992609790
31 -0.26460150620762
32 0.083766518893340
33 0.0
34 -0.001072728936690
35 -0.051090875282430
36 0.52728268937898
37 -0.45852984609752
38 0.0
39 0.016715041225617
40 0.008704728790220
41 -0.24203276486966
42 0.30484779513425
43 0.0
44 -0.011411422410778
45 -0.002915674790994
46 -0.77685831671709
47 1.03305182854014
48 0.0
49 -0.068882623027039
50 0.086305677690800
 Sym=     16.1
 Ene=       0.6262
 Spin= Alpha
 Occup=    0.000000
1 -0.007991293303233
2 -0.040647255384335
3 -0.087261368543723
4 0.0
5 0.14852115728983
6 0.51288179593657
7 0.0
8 0.37173919580619
9 -1.42452742170804
10 0.046824487706213
11 -0.072581335080411
12 0.025756847374198
13 0.0
14 0.0
15 0.063945676242314
16 0.004578041377318
17 0.047678975125060
18 1.00343117971230
19 0.0
20 0.029791154653060
21 -0.23393619138118
22 0.0
23 0.11827734986683
24 0.32843317098056
25 -0.003212079916389
26 0.028974587824823
27 -0.025762507908434
28 0.0
29 0.0
30 -0.15457198581837
31 -0.88720035429892
32 0.75767039764527
33 0.0
34 -0.031888144283855
35 -0.024887721950620
36 0.23414041721375
37 -0.44081172993235
38 0.0
39 -0.028577222510380
40 0.061340715930687
41 -0.90291124942364
42 0.93496497931697
43 0.0
44 0.029592893890001
45 0.011729780309031
46 -0.89388104302524
47 0.24989032194272
48 0.0
49 -0.035788840923588
50 0.013535175026566
 Sym=     17.1
 Ene=       0.6631
 Spin= Alpha
 Occup=    0.000000
1 -0.074472731816297
2 -0.39139013021736
3 0.97334178083331
4 0.0
5 0.42888867059846
6 0.11023555864824
7 0.0
8 -0.84338724509239
9 0.83026900695678
10 -0.041496512738084
11 0.062468641111531
12 -0.020972128373448
13 0.0
14 0.0
15 -0.034991618921753
16 -0.012569687661122
17 -0.021090817000717
18 -0.87071308130478
19 0.0
20 -0.024219456252165
21 0.18730626847055
22 0.0
23 -0.53364844579078
24 0.23029145805984
25 0.046929571625002
26 -0.040386740962411
27 -0.006542830662592
28 0.0
29 0.0
30 0.028037161472076
31 0.30984668054773
32 -0.12431200314524
33 0.0
34 -0.040073876582103
35 0.007531503308995
36 -0.62455553712715
37 0.15151076491144
38 0.0
39 0.042013064498360
40 -0.045044078652740
41 -1.60623951505388
42 1.78506814517030
43 0.0
44 -0.009878880256100
45 0.007194331393495
46 0.69138123737088
47 -0.25692556495117
48 0.0
49 0.036659621216475
50 0.027006898081979
 Sym=     18.1
 Ene=       0.6813
 Spin= Alpha
 Occup=    0.000000
1 0.0
2 0.0
3 0.0
4 -0.98180196632709
5 0.0
6 0.0
7 1.08163424492108
8 0.0
9 0.0
10 0.0
11 0.0
12 0.0
13 0.042384288820652
14 -0.10386896149102
15 0.0
16 0.0
17 0.0
18 0.0
19 -1.00102734169211
20 0.0
21 0.0
22 1.08899253596374
23 0.0
24 0.0
25 0.0
26 0.0
27 0.0
28 -0.036322671824824
29 0.10435976900593
30 0.0
31 0.0
32 0.0
33 -0.017882815069573
34 0.0
35 0.0
36 0.0
37 0.0
38 -0.019538725548418
39 0.0
40 0.0
41 0.0
42 0.0
43 0.009115366940569
44 0.0
45 0.0
46 0.0
47 0.0
48 -0.018718779255402
49 0.0
50 0.0
 Sym=     19.1
 Ene=       0.7283
 Spin= Alpha
 Occup=    0.000000