[Molden Format]
[Molpro variables]
_NUMVAR=  691.0000000000000    
_EV2006= 0.3674930886769165E-01
_EV= 0.3674932534394180E-01
_KJOULE= 0.3808798324128737E-03
_KJOULE/MOL= 0.3808798324128737E-03
_CM= 0.4556335267302901E-05
_CM-1= 0.4556335267302901E-05
_KCAL= 0.1593601117815568E-02
_KCAL/MOL= 0.1593601117815568E-02
_KELVIN2006= 0.3166828861084835E-05
_KELVIN= 0.3166814820820034E-05
_HERTZ2006= 0.1519829850815779E-15
_HERTZ= 0.1519829846011223E-15
_HZ2006= 0.1519829850815779E-15
_HZ= 0.1519829846011223E-15
_TOA2006= 0.5291772490000000    
_TOA= 0.5291772090000000    
_TOANG2006= 0.5291772490000000    
_TOANG= 0.5291772090000000    
_TORAD= 0.1745329251994330E-01
_TOCM=  219474.6306700000    
_TODEBYE=  2.541580000000000    
_TOEV2006=  27.21139610000000    
_TOEV=  27.21138390000000    
_TOHERTZ2006=  6579683899900000.    
_TOHERTZ=  6579683920700000.    
_TOHZ2006=  6579683899900000.    
_TOHZ=  6579683920700000.    
_TOK2006=  315773.3000000000    
_TOK=  315774.7000000000    
_TOKCAL=  627.5096000000000    
_TOKELVIN2006=  315773.3000000000    
_TOKELVIN=  315774.7000000000    
_TOKJ=  2625.500000000000    
_TOKJOULE=  2625.500000000000    
_ANG2006=  1.889725988578923    
_ANG=  1.889726131421507    
_ANGSTROM2006=  1.889725988578923    
_ANGSTROM=  1.889726131421507    
_IGNORE_UNDEF=  2.000000000000000    
_STRICTCHECK=  0.000000000000000    
_SEW_ONEEL=  0.000000000000000    
_CPPDONE=FALSE
_DKROLL_DONE=  0.000000000000000    
_FOCKDONE=  0.000000000000000    
_GRADONE=FALSE
_HESSDONE=FALSE
_INTDONE=TRUE
_SCFDONE=FALSE
_MODUL_CUDA=FALSE
_MODUL_SLATER=FALSE
_MODUL_MRCC=FALSE
_MRCC_EXEC=
_FITC_AO_SAVED=FALSE
_FITC_MO_SAVED=FALSE
_SHARED_FS=TRUE
_LSTYP=SEWARD
_INTYP=INTS
_GEOMTYP=ZMAT
_GRADTYP=ALASKA
_DIRECT=FALSE
_SYNCM=  0.000000000000000    
_BASIS=CC-PVDZ
_ZORIENT=  1.000000000000000    
_NELEC=  16.00000000000000    
_SPIN=  0.000000000000000    
!SPIN=  0.000000000000000    
_QSDSTEP=  0.000000000000000    
_QSDIRC=  0.000000000000000    
_PROGRAM=RS2
_CPUSTEP= 0.6000000000000005E-01
_SYSSTEP= 0.1000000000000001E-01
_WALLSTEP=  1.230000000000000    
!DFMP2=  0.000000000000000    
!DFSCF=  0.000000000000000    
!SCSGRD=  0.000000000000000    
_BASINP=  610.0000000000000    
_CPUTOT=  1.690000000000000    
_DFTEXFAC=  1.000000000000000    
_DMX=-0.9794309256054648E-06
_DMY= 0.2355344168799456    
_DMZ= 0.1997167072949899    
_EMP2= -78.21772720286685    
_ENERGR= -77.96175121313067    
_ENERGU= -78.20078088723372    
_ENERGY= -78.21772720286685    
_ENUC=  31.50316650466779    
_GRADEXFAC=  9999.000000000000    
_GRADMETHOD=TRUE
!GRID_FREEZE= -1.000000000000000    
_ITERATIONS=  5.000000000000000    
_LASTNELEC=  2.000000000000000    
_LASTSPIN=  0.000000000000000    
_LASTSYM=  1.000000000000000    
_MPP_PROG=  1.000000000000000    
_NPROC_MPP=  4.000000000000000    
_NPROC_SMP=  1.000000000000000    
_NUMSTEP=  0.000000000000000    
_ORBITAL=  2142.200000000000    
_PI=  3.141592653589793    
!MCACT=  2.000000000000000    
!MCCLOSED=  7.000000000000000    
!MCFREEZE=  0.000000000000000    
!MCMS2=  0.000000000000000    
!MCNEL=  2.000000000000000    
!MCNSTSYM=  1.000000000000000    
!MCSTATE=  1.000000000000000    
!MCSYM=  1.000000000000000    
!MCWEIGHT=  1.000000000000000    
_SEIG_MIN= 0.4058440603508896E-02
_SEWPROP=TRUE
_STATUS=  1.000000000000000    
_SYSTOT= 0.3100000000000000    
_VERSION=  2010001.000000000    
_WALLTOT=  12.28000000000000    
_DATE=06-Sep-19
_LASTORB=MCSCF
_MACHINE=Linux-2.6.34-12-desktop/tt108(x86_64) 64 bit mpp version
_OUTPUT=/home/carlo/qm/combustion/barrierless/c2h4_c2h3_h/dist_1.8/molpro.xml
_PGROUP=C1
_TIME=00:11:02
_LIBMOL=/programs/molpro2010p/bin/../lib/
!SURFREC=  0.000000000000000    
!POLYREC=  0.000000000000000    
!DIPREC=  0.000000000000000    
!VSCFREC=  0.000000000000000    
!VCIREC=  0.000000000000000    
!PVCIREC=  0.000000000000000    
!VMP2REC=  0.000000000000000    
!VMCSCFREC=  0.000000000000000    
!GAREC=  0.000000000000000    
!SCFORB=  21002.00000000000    
!MCORB=  21422.00000000000    
!CIOCC=  9.000000000000000    
!CICORE=  2.000000000000000    
!CICLOS=  7.000000000000000    
!CIISTSYM=  1.000000000000000    
!CIISTMS2=  0.000000000000000    
!CIISTNEL=  12.00000000000000    
!NEWMOL=  0.000000000000000    
!NEWSYM=  0.000000000000000    
_SLFILES=slscratch
_NGSSTO=  9.000000000000000    
_SIN=SIN
_COS=COS
_TAN=TAN
_ACOS=ACOS
_ASIN=ASIN
_ATAN=ATAN
_COSH=COSH
_SINH=SINH
_TANH=TANH
_ABS=ABS
_MOD=MOD
_ERF=ERF
_REFC=REFC
_ERFC=ERFC
_HYPOT=HYPOT
_J0=J0
_J1=J1
_JN=JN
_GAMMA=GAMMA
_LGAMMA=LGAMMA
_Y0=Y0
_Y1=Y1
_YN=YN
_EXP=EXP
_LOG=LOG
_LOG10=LOG10
_SQRT=SQRT
_INT=INT
_NINT=NINT
_MAX=MAX
_MIN=MIN
_COSMO=  0.000000000000000    
_COSMOIT=  0.000000000000000    
_COSMOES=  0.000000000000000    
_COSMOEDS=  0.000000000000000    
_COSMOEC=  0.000000000000000    
_COSMOEDCORR=  0.000000000000000    
_FEPSI=  1.000000000000000    
_SL_IsMM=  0.000000000000000    
_SL_NSYM=  0.000000000000000    
_SL_System_BitSw=  0.000000000000000    
_SL_Unique_atoms=  0.000000000000000    
_SL_GRAD=  0.000000000000000    
_SL_MAXUPD_Hess=  5.000000000000000    
_SL_N_PRINT_COD=  5.000000000000000    
_SL_PRINT_CODES=  0.000000000000000    
_SL_BasType=  0.000000000000000    
_SL_Energy_Pred=  0.000000000000000    
_SL_New_Coords=  0.000000000000000    
_SL_Total_Nuclea=  0.000000000000000    
_SL_Highest_Mltp=  0.000000000000000    
_SL_Ref_Geom=  0.000000000000000    
!LATTICE= -1.000000000000000    
!NEWLATTICE=  0.000000000000000    
!LATGRAD_VAR=FALSE
!SEW_LATTICE=  1.000000000000000    
!LOCAL=  0.000000000000000    
!SAVEDOM= -1.000000000000000    
!RESTDOM= -1.000000000000000    
!SAVEDOM_HF= -1.000000000000000    
!RESTDOM_HF= -1.000000000000000    
!HESSREC=  0.000000000000000    
!FREQREC=  0.000000000000000    
!NMODREC=  0.000000000000000    
!GTASKS=  0.000000000000000    
!HTASKS=  0.000000000000000    
!THRCHG= 0.1000000000000000    
!DEBUG= -1.000000000000000    
!CFIT_CPHF=  0.000000000000000    
!RDOMAUX_CPHF=  3.000000000000000    
!THRAO_CPHF= 0.1000000000000000E-09
!THRMO_CPHF= 0.1000000000000000E-08
!THROV_CPHF= 0.1000000000000000E-11
!THRSW_CPHF= 0.1000000000000000E-09
!THRPROD_CPHF= 0.1000000000000000E-08
!THRAOPR_CPHF= 0.1000000000000000E-11
!CFIT_SCFGRD=  0.000000000000000    
!RDOMAUX_SCFGRD=  5.000000000000000    
!THRAO_SCFGRD= 0.1000000000000000E-09
!THRMO_SCFGRD= 0.1000000000000000E-08
!THROV_SCFGRD= 0.1000000000000000E-11
!THRSW_SCFGRD= 0.1000000000000000E-09
!THRPROD_SCFGRD= 0.1000000000000000E-08
!THRAOPR_SCFGRD= 0.1000000000000000E-11
!LOCFIT_SCF=  0.000000000000000    
!LOCFIT_MP2= -1.000000000000000    
_RIDOM=  0.000000000000000    
!CC2_METHOD=  0.000000000000000    
_BASIS2006=FALSE
_SVDDEL= -1.000000000000000    
_SVDDELA= -1.000000000000000    
_SVDDELP= -1.000000000000000    
_SVDDELF= -1.000000000000000    
_SVDDELS= -1.000000000000000    
_SVDDEL_ABS= -1.000000000000000    
_SVDDELA_ABS= -1.000000000000000    
_SVDDELP_ABS= -1.000000000000000    
_SVDDELF_ABS= -1.000000000000000    
_SVDDELS_ABS= -1.000000000000000    
_MAXBASIS=  0.000000000000000    
!OPT_CONICAL=  0.000000000000000    
!CLEARSP_JGRID=  0.000000000000000    
RCC1=  1.339199692756090    
RCC2=  1.096725517589114    
RCC3=  1.091909764315758    
RCH2=  1.090919782277010    
ACCC1=  119.7252876259245    
AHCC1=  122.3757741256048    
AHCC2=  118.7642211456448    
AHCC3=  130.3722542998892    
B1=  180.0000568617668    
B2=  180.0004710103985    
B3=  179.9996192529328    
RCH1=  1.800000000000000    
GX1= 0.1505401243388033E-05
GY1= 0.1666297858001360    
GZ1= -1.224867901581394    
GX2=-0.4778877191169805E-06
GY2=-0.7555017266787814E-01
GZ2=  1.294238269125846    
GX3=-0.8396013451182433E-05
GY3=  1.617643847928371    
GZ3=  2.489393201802810    
GX4= 0.7272678229948983E-05
GY4= -1.915948737403028    
GZ4=  2.227295428516779    
GX5=-0.9940152734377686E-05
GY5= -2.644833807909307    
GZ5= -3.139527814170002    
GX6=-0.1180757674108511E-05
GY6=  1.857799060767152    
GZ6= -2.403804747907840    
CBSEN= -78.21772720286685    
[Atoms] Angs
C     1    6         0.0000007966        0.0881766850       -0.6481721776
C     2    6        -0.0000002529       -0.0399794295        0.6848813950
H     3    1        -0.0000044430        0.8560202566        1.3173301466
H     4    1         0.0000038485       -1.0138764054        1.1786339785
H     5    1        -0.0000052601       -1.3995857727       -1.6613665663
H     6    1        -0.0000006248        0.9831049219       -1.2720386875
[GTO]
  1 0
 s    9  1.00
  0.6665000000D+04  0.6920001793D-03
  0.1000000000D+04  0.5329001381D-02
  0.2280000000D+03  0.2707700701D-01
  0.6471000000D+02  0.1017180264D+00
  0.2106000000D+02  0.2747400712D+00
  0.7495000000D+01  0.4485641162D+00
  0.2797000000D+01  0.2850740738D+00
  0.5215000000D+00  0.1520400394D-01
  0.1596000000D+00 -0.3191000827D-02
 s    9  1.00
  0.6665000000D+04 -0.1460000642D-03
  0.1000000000D+04 -0.1154000508D-02
  0.2280000000D+03 -0.5725002519D-02
  0.6471000000D+02 -0.2331201026D-01
  0.2106000000D+02 -0.6395502813D-01
  0.7495000000D+01 -0.1499810660D+00
  0.2797000000D+01 -0.1272620560D+00
  0.5215000000D+00  0.5445292395D+00
  0.1596000000D+00  0.5804962554D+00
 s    9  1.00
  0.6665000000D+04  0.0000000000D+00
  0.1000000000D+04  0.0000000000D+00
  0.2280000000D+03  0.0000000000D+00
  0.6471000000D+02  0.0000000000D+00
  0.2106000000D+02  0.0000000000D+00
  0.7495000000D+01  0.0000000000D+00
  0.2797000000D+01  0.0000000000D+00
  0.5215000000D+00  0.0000000000D+00
  0.1596000000D+00  0.1000000000D+01
 p    4  1.00
  0.9439000000D+01  0.3810902127D-01
  0.2002000000D+01  0.2094801169D+00
  0.5456000000D+00  0.5085572839D+00
  0.1517000000D+00  0.4688422617D+00
 p    4  1.00
  0.9439000000D+01  0.0000000000D+00
  0.2002000000D+01  0.0000000000D+00
  0.5456000000D+00  0.0000000000D+00
  0.1517000000D+00  0.1000000000D+01
 d    1  1.00
  0.5500000000D+00  0.1000000000D+01
  
  2 0
 s    9  1.00
  0.6665000000D+04  0.6920001793D-03
  0.1000000000D+04  0.5329001381D-02
  0.2280000000D+03  0.2707700701D-01
  0.6471000000D+02  0.1017180264D+00
  0.2106000000D+02  0.2747400712D+00
  0.7495000000D+01  0.4485641162D+00
  0.2797000000D+01  0.2850740738D+00
  0.5215000000D+00  0.1520400394D-01
  0.1596000000D+00 -0.3191000827D-02
 s    9  1.00
  0.6665000000D+04 -0.1460000642D-03
  0.1000000000D+04 -0.1154000508D-02
  0.2280000000D+03 -0.5725002519D-02
  0.6471000000D+02 -0.2331201026D-01
  0.2106000000D+02 -0.6395502813D-01
  0.7495000000D+01 -0.1499810660D+00
  0.2797000000D+01 -0.1272620560D+00
  0.5215000000D+00  0.5445292395D+00
  0.1596000000D+00  0.5804962554D+00
 s    9  1.00
  0.6665000000D+04  0.0000000000D+00
  0.1000000000D+04  0.0000000000D+00
  0.2280000000D+03  0.0000000000D+00
  0.6471000000D+02  0.0000000000D+00
  0.2106000000D+02  0.0000000000D+00
  0.7495000000D+01  0.0000000000D+00
  0.2797000000D+01  0.0000000000D+00
  0.5215000000D+00  0.0000000000D+00
  0.1596000000D+00  0.1000000000D+01
 p    4  1.00
  0.9439000000D+01  0.3810902127D-01
  0.2002000000D+01  0.2094801169D+00
  0.5456000000D+00  0.5085572839D+00
  0.1517000000D+00  0.4688422617D+00
 p    4  1.00
  0.9439000000D+01  0.0000000000D+00
  0.2002000000D+01  0.0000000000D+00
  0.5456000000D+00  0.0000000000D+00
  0.1517000000D+00  0.1000000000D+01
 d    1  1.00
  0.5500000000D+00  0.1000000000D+01
  
  3 0
 s    4  1.00
  0.1301000000D+02  0.1968498999D-01
  0.1962000000D+01  0.1379769298D+00
  0.4446000000D+00  0.4781477569D+00
  0.1220000000D+00  0.5012397451D+00
 s    4  1.00
  0.1301000000D+02  0.0000000000D+00
  0.1962000000D+01  0.0000000000D+00
  0.4446000000D+00  0.0000000000D+00
  0.1220000000D+00  0.1000000000D+01
 p    1  1.00
  0.7270000000D+00  0.1000000000D+01
  
  4 0
 s    4  1.00
  0.1301000000D+02  0.1968498999D-01
  0.1962000000D+01  0.1379769298D+00
  0.4446000000D+00  0.4781477569D+00
  0.1220000000D+00  0.5012397451D+00
 s    4  1.00
  0.1301000000D+02  0.0000000000D+00
  0.1962000000D+01  0.0000000000D+00
  0.4446000000D+00  0.0000000000D+00
  0.1220000000D+00  0.1000000000D+01
 p    1  1.00
  0.7270000000D+00  0.1000000000D+01
  
  5 0
 s    4  1.00
  0.1301000000D+02  0.1968498999D-01
  0.1962000000D+01  0.1379769298D+00
  0.4446000000D+00  0.4781477569D+00
  0.1220000000D+00  0.5012397451D+00
 s    4  1.00
  0.1301000000D+02  0.0000000000D+00
  0.1962000000D+01  0.0000000000D+00
  0.4446000000D+00  0.0000000000D+00
  0.1220000000D+00  0.1000000000D+01
 p    1  1.00
  0.7270000000D+00  0.1000000000D+01
  
  6 0
 s    4  1.00
  0.1301000000D+02  0.1968498999D-01
  0.1962000000D+01  0.1379769298D+00
  0.4446000000D+00  0.4781477569D+00
  0.1220000000D+00  0.5012397451D+00
 s    4  1.00
  0.1301000000D+02  0.0000000000D+00
  0.1962000000D+01  0.0000000000D+00
  0.4446000000D+00  0.0000000000D+00
  0.1220000000D+00  0.1000000000D+01
 p    1  1.00
  0.7270000000D+00  0.1000000000D+01
 
 
[MO]
 Sym=      1.1
 Ene=     -11.2819
 Spin= Alpha
 Occup=    2.000000
1 1.00070306074583
2 0.005775204675093
3 -0.007751775733850
4 -0.000000004379558
5 0.001130349165903
6 0.000238947789026
7 0.000000005445375
8 -0.000159749887262
9 -0.000684407719145
10 -0.000477374383251
11 -0.000078957910238
12 0.000556332293490
13 -0.000000001358429
14 0.000000000602558
15 -0.000979486337124
16 0.025738684301752
17 -0.000884374880898
18 0.002817838971229
19 -0.000000000557101
20 -0.000044430495126
21 0.000120545162519
22 -0.000000000772827
23 0.000178987261894
24 -0.001561308306565
25 0.000204472376735
26 -0.000092780575870
27 -0.000111691800865
28 0.000000001532105
29 0.000000002133824
30 -0.000483347420026
31 0.000201187441834
32 0.000079177745938
33 0.000000001157930
34 -0.000224765714125
35 -0.000098784662232
36 -0.000111115551059
37 0.000531989784821
38 0.000000000298435
39 -0.000019725892966
40 -0.000116380548307
41 -0.000349595579348
42 0.000292136706823
43 0.000000000489862
44 0.000143643538918
45 0.000140557589179
46 -0.000895631145403
47 0.001770338469244
48 -0.000000001710635
49 0.000665930917716
50 -0.000125808431168
 Sym=      2.1
 Ene=     -11.2514
 Spin= Alpha
 Occup=    2.000000
1 -0.026714322133406
2 -0.000946498228227
3 0.002743274997495
4 0.000000000929689
5 -0.000147241122523
6 -0.000316503855145
7 -0.000000000416522
8 -0.000298220400660
9 0.001207852697609
10 0.000317388101352
11 -0.000104604364164
12 -0.000212783737188
13 0.000000001620793
14 0.000000000470452
15 0.000093671317187
16 1.00102086092820
17 0.008029734628014
18 -0.009133049638358
19 0.000000002333415
20 0.000021933525998
21 0.000145787211928
22 -0.000000002917874
23 0.000042092190883
24 0.000515973401980
25 -0.000744447117511
26 0.000300016153674
27 0.000444430963837
28 -0.000000005077488
29 -0.000000000821326
30 -0.000040375803511
31 -0.000563319595378
32 0.001467615538624
33 -0.000000001900939
34 0.000466643719799
35 0.000260030849908
36 -0.000571838958672
37 0.001541354646007
38 0.000000002056172
39 -0.000498215177051
40 0.000175087905564
41 -0.000030703551145
42 0.000056205820849
43 -0.000000000099214
44 0.000002602695510
45 -0.000024376830947
46 0.000176771055615
47 0.000183537739928
48 0.000000000008625
49 -0.000124387082025
50 0.000100465437244
 Sym=      3.1
 Ene=      -1.0230
 Spin= Alpha
 Occup=    2.000000
1 -0.016610539392915
2 0.55751201382580
3 -0.12648799222653
4 -0.000000288696102
5 0.043989547440709
6 0.24017512771078
7 0.000000063294389
8 -0.014781146685123
9 -0.062147710339817
10 -0.010073964701533
11 -0.012566730206349
12 0.022640694907883
13 0.000000006169473
14 -0.000000028947964
15 -0.004333547386306
16 -0.022811293343422
17 0.65828051967834
18 -0.18925377509704
19 0.000000103750774
20 0.026473024091893
21 -0.17529972851226
22 -0.000000089977792
23 -0.002307979254167
24 0.071592941273284
25 -0.006786527342900
26 -0.010840842016339
27 0.017627369359239
28 0.000000019441984
29 -0.000000018522594
30 -0.005315393540490
31 0.21247617074689
32 -0.10678276670832
33 0.000000079613799
34 -0.015751261843732
35 -0.013747558918133
36 0.21279854626834
37 -0.095226819074538
38 -0.000000072800333
39 0.016891013628159
40 -0.010970046130454
41 -0.004293270798466
42 -0.014722728568978
43 0.000000003618630
44 0.001329238897181
45 0.000254747260874
46 0.17773110065954
47 -0.075210986243891
48 0.000000014605123
49 -0.010651041803840
50 0.011755737727115
 Sym=      4.1
 Ene=      -0.7637
 Spin= Alpha
 Occup=    2.000000
1 -0.009395416205771
2 0.50990123532423
3 -0.10220072212912
4 -0.000000409656011
5 0.23651574219770
6 -0.13258595889669
7 0.000000074428534
8 -0.057307178790799
9 0.028877938459819
10 -0.003121909507035
11 0.007745103808249
12 -0.004623194301214
13 -0.000000021284134
14 0.000000010115359
15 -0.005953292460096
16 0.010562818431669
17 -0.38569287377981
18 0.065478087436194
19 -0.000000155725647
20 0.097263834776322
21 -0.29733119364493
22 0.000000017679082
23 -0.019069770305893
24 0.064134523624405
25 0.001233467415268
26 -0.012594692532215
27 0.011361225116948
28 0.000000066876962
29 -0.000000000880494
30 -0.007920981305081
31 -0.28055655262956
32 0.097979486694076
33 -0.000000077493792
34 0.016606155380035
35 0.006312705000278
36 -0.36347910176427
37 0.14587463329203
38 0.000000100650231
39 -0.022232833539227
40 0.006018759249987
41 -0.004574653665862
42 -0.020396917557832
43 0.000000007703462
44 0.002212351891368
45 0.000531593474667
46 0.48404524302886
47 -0.17981217307469
48 0.000000036301630
49 -0.022392192968615
50 0.016942717851367
 Sym=      5.1
 Ene=      -0.6170
 Spin= Alpha
 Occup=    2.000000
1 -0.001837068297242
2 -0.11204891306485
3 0.049763172500105
4 -0.000000434694965
5 0.27403024338124
6 -0.41015107853118
7 0.000000098608917
8 -0.067491918439754
9 0.10527422352155
10 -0.000374991899677
11 0.012549315046285
12 -0.012174323146609
13 -0.000000040656847
14 -0.000000015949374
15 0.005033572799835
16 -0.002998912757042
17 0.006401634733805
18 0.024892314437846
19 -0.000001713150530
20 0.32743039541743
21 0.49870525684692
22 0.000000398507128
23 -0.068118250650419
24 -0.11431479556254
25 -0.001708765824353
26 0.016026429112275
27 -0.014317663287922
28 -0.000000069292795
29 -0.000000001383149
30 0.008369072626017
31 0.54017142243293
32 -0.15922817370451
33 0.000000090712809
34 -0.019918198113777
35 -0.008765710900301
36 -0.054051043517756
37 0.019710258019133
38 -0.000000014117543
39 0.002344012007343
40 0.009855198222291
41 0.011958706826330
42 0.013161027133156
43 -0.000000000500687
44 0.000934806619726
45 -0.001187920902931
46 0.34991214610592
47 -0.11078617109686
48 0.000000022958502
49 -0.013312357060293
50 0.004203062284318
 Sym=      6.1
 Ene=      -0.5719
 Spin= Alpha
 Occup=    2.000000
1 0.002565420162704
2 -0.037276800533563
3 -0.023392732470717
4 -0.000000567873960
5 -0.12630781447623
6 0.34255945006335
7 0.000000133159297
8 0.023497105711435
9 -0.092532118932192
10 0.002317662805802
11 -0.013992552186888
12 0.011674889381086
13 0.000000021717936
14 -0.000000127811372
15 0.027518335826356
16 0.000731471629556
17 0.034376483254726
18 -0.015297429815288
19 -0.000002262209309
20 0.54595443393895
21 -0.25355700715301
22 0.000000491362047
23 -0.11328384707263
24 0.049937208226364
25 -0.000069192795979
26 -0.011945151562480
27 0.012014344358459
28 0.000000048005245
29 -0.000000079123932
30 0.023355081673477
31 0.33040261132385
32 -0.081000251350658
33 0.000000022511315
34 -0.003491361254092
35 -0.014886714862586
36 -0.59178500111665
37 0.16052534773349
38 0.000000076451212
39 -0.017868673593753
40 0.010111460613387
41 0.017838036755422
42 0.022455281841947
43 -0.000000005043567
44 -0.001559640335820
45 0.000550216489560
46 -0.34563359055450
47 0.083096537162787
48 -0.000000030946108
49 0.009088153846313
50 -0.004808029699362
 Sym=      7.1
 Ene=      -0.3839
 Spin= Alpha
 Occup=    2.000000
1 0.000000008067032
2 0.000000259973270
3 0.000000000408151
4 0.58341633218315
5 0.000000960573761
6 0.000000594599878
7 0.010419184176733
8 -0.000000122136564
9 -0.000000156784733
10 -0.000000030844820
11 -0.000000029005595
12 0.000000059850415
13 0.001240645766243
14 0.035190889161524
15 0.000000136939961
16 -0.000000017765836
17 -0.000000285572382
18 0.000000102985882
19 0.57843833357122
20 0.000002765448893
21 0.000000545303376
22 0.023330145097133
23 0.000000068153276
24 -0.000000071521913
25 0.000000047266236
26 -0.000000005455890
27 -0.000000041810346
28 0.004217393998121
29 -0.032923891742153
30 -0.000000003848687
31 0.000000585933243
32 0.000000042083751
33 0.013358470131949
34 0.000000052909959
35 0.000000013878620
36 -0.000000589941042
37 0.000000026413596
38 0.013234844747739
39 0.000000063745738
40 0.000000011269651
41 -0.000000554537589
42 0.000000374617906
43 0.003711993160836
44 -0.000000038885553
45 -0.000000044349830
46 -0.000000454482430
47 0.000000014131467
48 0.013875692617810
49 0.000000021955988
50 0.000000004218009
 Sym=      8.1
 Ene=      -0.4000
 Spin= Alpha
 Occup=    1.867159
1 -0.003676300494879
2 0.21475041936752
3 0.057509598841945
4 0.000001247104138
5 -0.44807141466520
6 -0.28460879246813
7 0.000000174300372
8 -0.003380094587055
9 0.012114788562143
10 -0.005560295836364
11 0.008971082169392
12 -0.003410786333028
13 0.000000063945557
14 0.000000062429356
15 0.023985741508963
16 -0.000991241606136
17 -0.086420981248850
18 0.013149566257852
19 0.000000359575151
20 0.020204980030274
21 0.095325496106052
22 0.000000122483326
23 0.037274082475011
24 -0.016650826072229
25 0.000981301086831
26 -0.002869660319709
27 0.001888359232878
28 -0.000000000843317
29 -0.000000083494718
30 0.024252398960349
31 0.097749021258109
32 0.010582999185519
33 0.000000012809979
34 0.000368210312969
35 0.000541699342791
36 -0.068402373829192
37 0.011846646077673
38 0.000000001937463
39 0.001059313716611
40 0.002337218722780
41 0.62908400086335
42 -0.019152707875589
43 0.000000070781254
44 0.012158910584783
45 0.007890914235324
46 -0.14441587240968
47 0.019450935158864
48 0.000000021556491
49 -0.004864629697419
50 -0.007655404163183
 Sym=      9.1
 Ene=       0.1690
 Spin= Alpha
 Occup=    0.132841
1 -0.019859838442300
2 -0.44109854474841
3 -0.071866948979932
4 -0.000001255051398
5 0.67280138480367
6 0.43371540952198
7 0.000000320095181
8 -0.038869153256260
9 -0.060326771230745
10 0.014973372602827
11 -0.021334533674075
12 0.006361161071248
13 0.000000136904589
14 0.000000150881283
15 -0.049480013508867
16 -0.000425373510886
17 0.071593405415768
18 0.012987282794188
19 0.000001099223657
20 -0.031751334422166
21 -0.10210952185589
22 0.000000175497198
23 -0.046026373088685
24 0.012198253867879
25 -0.003406492439047
26 0.006531184503576
27 -0.003124692064528
28 -0.000000012565865
29 0.000000057061840
30 -0.032003318925031
31 -0.11696829379981
32 0.003718816301389
33 0.000000014455577
34 -0.001182389604546
35 0.002576304850735
36 0.063645908824156
37 -0.020627706689597
38 0.000000048198105
39 -0.003362067079461
40 -0.002713539881052
41 1.04605745145863
42 -0.17620911032106
43 -0.000000064661834
44 -0.009685600372290
45 -0.006538564655755
46 0.13164841325833
47 -0.038017911131442
48 -0.000000005170450
49 0.009784448519857
50 0.009954611695817
 Sym=     10.1
 Ene=       0.1614
 Spin= Alpha
 Occup=    0.000000
1 0.000000108232030
2 -0.000000607055026
3 -0.000003312591795
4 0.53788733100924
5 0.000001339399674
6 0.000000980655782
7 0.48660633044115
8 0.000000997104334
9 0.000001155753888
10 0.000000035010873
11 0.000000024119473
12 -0.000000059130345
13 0.009499956592849
14 -0.021469184764041
15 -0.000000045657110
16 0.000000020100416
17 0.000000074383718
18 -0.000000530510546
19 -0.51634451221174
20 -0.000002073898514
21 -0.000000712795996
22 -0.50003267037414
23 -0.000001792839066
24 -0.000001270626374
25 0.000000037160062
26 0.000000000842874
27 -0.000000038002936
28 0.001706888483693
29 -0.026483752433638
30 -0.000000050670676
31 0.000000284310881
32 0.000000801904176
33 -0.018266952071694
34 -0.000000084651789
35 -0.000000018511124
36 -0.000000626523125
37 0.000000922341196
38 -0.018669272699754
39 -0.000000078630240
40 -0.000000044631062
41 -0.000000022245601
42 0.000003115596458
43 0.011526301446254
44 -0.000000112103791
45 -0.000000012312945
46 0.000000326259952
47 0.000002665944166
48 0.021859882756325
49 0.000000017088862
50 0.000000050422261
 Sym=     11.1
 Ene=       0.2078
 Spin= Alpha
 Occup=    0.000000
1 0.024372380070264
2 -0.048256568108009
3 -0.70473713150480
4 -0.000000689673768
5 -0.15670183246077
6 0.12903124246898
7 -0.000000320468267
8 -0.26611953079865
9 0.32990703122040
10 0.006044480008338
11 -0.005121041674403
12 -0.000923438333935
13 -0.000000048241731
14 -0.000000009443548
15 0.008572411330148
16 0.057510921613896
17 -0.14165024794057
18 -1.64436501672602
19 0.000001204923940
20 -0.098305046988272
21 -0.23534460018769
22 0.000001584980745
23 -0.12471257369400
24 -0.45518455284612
25 0.020741637419359
26 -0.017142355012298
27 -0.003599282407061
28 0.000000177996065
29 0.000000052345472
30 0.006055131520576
31 0.043168959253123
32 1.48395362689056
33 0.000000099924234
34 -0.014505422876749
35 -0.013598889110977
36 0.022793508039326
37 0.78569779963329
38 -0.000000023152303
39 0.012533202719953
40 -0.008518214702038
41 -0.060311101220953
42 0.003185296643264
43 0.000000012245455
44 -0.000028454873768
45 0.006928286759856
46 -0.000785259667346
47 1.02251205856417
48 -0.000000048833415
49 -0.008366809691954
50 0.011901764305828
 Sym=     12.1
 Ene=       0.2250
 Spin= Alpha
 Occup=    0.000000
1 0.036382110493250
2 -0.14284204932991
3 -1.01008166927264
4 0.000000056441545
5 -0.23542118216719
6 0.085378645593506
7 -0.000000230510462
8 -0.42683962277575
9 0.28651419111392
10 0.011337051857713
11 -0.017919405563548
12 0.006582353705834
13 0.000000079307200
14 0.000000021274062
15 0.005688409874400
16 -0.034725011865766
17 0.16091172183228
18 0.96151353563638
19 0.000001286766931
20 -0.20644962132110
21 0.053248594968126
22 0.000002380038334
23 -0.35066108884128
24 0.23458932849387
25 -0.012908745523751
26 0.013099355892942
27 -0.000190610369191
28 -0.000000141446777
29 -0.000000018811244
30 0.009414443860357
31 0.006947815069101
32 -0.10674754549207
33 -0.000000006329581
34 0.006354509511652
35 0.000282672225524
36 -0.064520432504969
37 -1.45640194220245
38 0.000000084197072
39 -0.017725654019598
40 0.003844434451956
41 -0.002556022119861
42 -0.026901061923930
43 -0.000000040723042
44 0.002718022795790
45 -0.006161283129735
46 0.081901533442156
47 1.58048211376194
48 0.000000028128945
49 -0.020124198983047
50 0.008115981611749
 Sym=     13.1
 Ene=       0.2782
 Spin= Alpha
 Occup=    0.000000
1 -0.029487420326987
2 0.036102241763144
3 0.87955151659910
4 0.000000553826863
5 0.15875746275102
6 -0.045938520897612
7 -0.000002151962405
8 0.86461168718727
9 -0.17871301450553
10 -0.019271292951649
11 0.022342401007044
12 -0.003071108055396
13 -0.000000031101565
14 0.000000055761534
15 -0.020955873256117
16 0.007818209503346
17 -0.007596448944022
18 -0.10058262537115
19 0.000001476014086
20 -0.38873491105051
21 -0.021204641779372
22 0.000005460539167
23 -1.46009116153335
24 -0.068285385380237
25 0.003369700364556
26 0.000726923155142
27 -0.004096623519698
28 0.000000034691423
29 0.000000096069943
30 -0.035398006555066
31 -0.024281411543289
32 1.91939542594880
33 0.000000090124871
34 -0.019745723035095
35 -0.019242713650802
36 0.038660326832744
37 -1.77730791457943
38 0.000000042742592
39 -0.017115540794329
40 0.016465685750062
41 0.076681280850165
42 0.18044102784379
43 -0.000000020363788
44 0.003381468969538
45 0.006302166884684
46 0.052153227859273
47 -1.41056170592561
48 0.000000016165219
49 0.018384647306779
50 -0.013378436700164
 Sym=     14.1
 Ene=       0.4573
 Spin= Alpha
 Occup=    0.000000
1 -0.066455914446839
2 0.061931990397409
3 3.79535136086372
4 0.000001054736798
5 -0.071632297433303
6 0.27773562001826
7 -0.000002272716472
8 -0.60401231721162
9 2.82754554480822
10 -0.041242447980661
11 -0.020490231171685
12 0.061732679152346
13 0.000000184026308
14 -0.000000000395238
15 -0.005644018957443
16 0.078123844529943
17 0.058079862869586
18 -3.53214798463852
19 0.000000043202458
20 -0.013087243614868
21 0.12298658535571
22 -0.000003311494496
23 -0.13931383256568
24 3.32652173234350
25 0.055797304204986
26 -0.022009184282503
27 -0.033788119922483
28 0.000000430002174
29 -0.000000026043843
30 0.008177861898810
31 -0.27289135821206
32 -0.55464965060699
33 0.000000068539631
34 -0.017317896399552
35 0.003405511242153
36 -0.24752306188072
37 -0.39872237531050
38 -0.000000123495910
39 0.022015300017574
40 0.002854920675057
41 0.25593778341745
42 -0.13166855680101
43 -0.000000056161057
44 -0.005615087459870
45 0.008432640587909
46 -0.003350883631684
47 1.00171007200777
48 0.000000036309861
49 0.018971890859900
50 0.004011971358249
 Sym=     15.1
 Ene=       0.5656
 Spin= Alpha
 Occup=    0.000000
1 0.046438387601106
2 0.12347984645946
3 -0.52239206312683
4 -0.000000421666902
5 0.11327859335443
6 0.44959371223578
7 0.000000930253300
8 -0.51714211936497
9 -1.81785778560934
10 -0.046219011659248
11 0.007159317296674
12 0.039059694362574
13 0.000000259656593
14 -0.000000048818493
15 0.005254021666732
16 0.065537500490606
17 0.32259212912963
18 0.73544934114983
19 -0.000001723177294
20 -0.015421542692719
21 -0.52556196585261
22 0.000000604781223
23 0.45242784826403
24 0.12573477307546
25 -0.023115499966799
26 -0.002340359142378
27 0.025455859109177
28 -0.000000253285173
29 0.000000008546920
30 -0.053660395592360
31 -0.27613329265366
32 0.27295441666416
33 -0.000000198559014
34 0.001617139471941
35 0.016520539493975
36 0.061244882081236
37 0.27282502532096
38 0.000000050300689
39 -0.021383691747292
40 0.025387786189228
41 1.15563505735825
42 -1.94208653906037
43 0.000000159068444
44 0.011203160385478
45 -0.046760846442182
46 -0.063712338074616
47 -0.10663510117135
48 0.000000092342306
49 0.022409940499304
50 -0.017280988475741
 Sym=     16.1
 Ene=       0.6081
 Spin= Alpha
 Occup=    0.000000
1 0.16130255588873
2 0.54966840237731
3 -0.73947707501128
4 -0.000000986380138
5 -0.075427985438145
6 0.36574793775793
7 0.000000590564940
8 0.53217352518763
9 -0.75271029171062
10 -0.035479660674279