 Entering Gaussian System, Link 0=g09
 Input=run.inp
 Output=run.out
 Initial command:
 /soft/gaussian/09-e.01/g09/l1.exe "/blues/gpfs/home/elliott/Packages/PACC/moldriver/rcdriver/rundir/SPC/H/YZCKVEUIGOORGS/0/2/UHFFFAOYSA-N/ezvN4wU/RUN/OPTI/A00/Gau-53556.inp" -scrdir="/blues/gpfs/home/elliott/Packages/PACC/moldriver/rcdriver/rundir/SPC/H/YZCKVEUIGOORGS/0/2/UHFFFAOYSA-N/ezvN4wU/RUN/OPTI/A00/"
 Entering Link 1 = /soft/gaussian/09-e.01/g09/l1.exe PID=     53557.
  
 Copyright (c) 1988,1990,1992,1993,1995,1998,2003,2009,2015,
            Gaussian, Inc.  All Rights Reserved.
  
 This is part of the Gaussian(R) 09 program.  It is based on
 the Gaussian(R) 03 system (copyright 2003, Gaussian, Inc.),
 the Gaussian(R) 98 system (copyright 1998, Gaussian, Inc.),
 the Gaussian(R) 94 system (copyright 1995, Gaussian, Inc.),
 the Gaussian 92(TM) system (copyright 1992, Gaussian, Inc.),
 the Gaussian 90(TM) system (copyright 1990, Gaussian, Inc.),
 the Gaussian 88(TM) system (copyright 1988, Gaussian, Inc.),
 the Gaussian 86(TM) system (copyright 1986, Carnegie Mellon
 University), and the Gaussian 82(TM) system (copyright 1983,
 Carnegie Mellon University). Gaussian is a federally registered
 trademark of Gaussian, Inc.
  
 This software contains proprietary and confidential information,
 including trade secrets, belonging to Gaussian, Inc.
  
 This software is provided under written license and may be
 used, copied, transmitted, or stored only in accord with that
 written license.
  
 The following legend is applicable only to US Government
 contracts under FAR:
  
                    RESTRICTED RIGHTS LEGEND
  
 Use, reproduction and disclosure by the US Government is
 subject to restrictions as set forth in subparagraphs (a)
 and (c) of the Commercial Computer Software - Restricted
 Rights clause in FAR 52.227-19.
  
 Gaussian, Inc.
 340 Quinnipiac St., Bldg. 40, Wallingford CT 06492
  
  
 ---------------------------------------------------------------
 Warning -- This program may not be used in any manner that
 competes with the business of Gaussian, Inc. or will provide
 assistance to any competitor of Gaussian, Inc.  The licensee
 of this program is prohibited from giving any competitor of
 Gaussian, Inc. access to this program.  By using this program,
 the user acknowledges that Gaussian, Inc. is engaged in the
 business of creating and licensing software in the field of
 computational chemistry and represents and warrants to the
 licensee that it is not a competitor of Gaussian, Inc. and that
 it will not use this program in any manner prohibited above.
 ---------------------------------------------------------------
  

 Cite this work as:
 Gaussian 09, Revision E.01,
 M. J. Frisch, G. W. Trucks, H. B. Schlegel, G. E. Scuseria, 
 M. A. Robb, J. R. Cheeseman, G. Scalmani, V. Barone, B. Mennucci, 
 G. A. Petersson, H. Nakatsuji, M. Caricato, X. Li, H. P. Hratchian, 
 A. F. Izmaylov, J. Bloino, G. Zheng, J. L. Sonnenberg, M. Hada, 
 M. Ehara, K. Toyota, R. Fukuda, J. Hasegawa, M. Ishida, T. Nakajima, 
 Y. Honda, O. Kitao, H. Nakai, T. Vreven, J. A. Montgomery, Jr., 
 J. E. Peralta, F. Ogliaro, M. Bearpark, J. J. Heyd, E. Brothers, 
 K. N. Kudin, V. N. Staroverov, T. Keith, R. Kobayashi, J. Normand, 
 K. Raghavachari, A. Rendell, J. C. Burant, S. S. Iyengar, J. Tomasi, 
 M. Cossi, N. Rega, J. M. Millam, M. Klene, J. E. Knox, J. B. Cross, 
 V. Bakken, C. Adamo, J. Jaramillo, R. Gomperts, R. E. Stratmann, 
 O. Yazyev, A. J. Austin, R. Cammi, C. Pomelli, J. W. Ochterski, 
 R. L. Martin, K. Morokuma, V. G. Zakrzewski, G. A. Voth, 
 P. Salvador, J. J. Dannenberg, S. Dapprich, A. D. Daniels, 
 O. Farkas, J. B. Foresman, J. V. Ortiz, J. Cioslowski, 
 and D. J. Fox, Gaussian, Inc., Wallingford CT, 2013.
 
 ******************************************
 Gaussian 09:  ES64L-G09RevE.01 30-Nov-2015
                23-Aug-2019 
 ******************************************
 %mem=20GB
 %NProcShared=10
 Will use up to   10 processors via shared memory.
 ------------------------------------------------------
 #P b3lyp/cc-pvdz # SCF=(xqc) # POpt=() # int=ultrafine
 ------------------------------------------------------
 1/10=7,14=-1,26=4,38=1/1,3;
 2/12=2,17=6,18=5,29=3,40=1/2;
 3/5=16,11=2,16=1,25=1,30=1,71=1,74=-5,75=-5/1,2,3;
 4//1;
 5/5=2,8=3,13=1,38=5/2,8;
 6/7=2,8=2,9=2,10=2,28=1/1;
 7/29=1/1,2,3,16;
 1/10=7,14=-1,26=4/3(2);
 2/29=3/2;
 99//99;
 2/29=3/2;
 3/5=16,11=2,16=1,25=1,30=1,71=1,74=-5,75=-5/1,2,3;
 4/5=5,16=3,69=1/1;
 5/5=2,8=3,13=1,38=5/2,8;
 7//1,2,3,16;
 1/14=-1,26=4/3(-5);
 2/29=3/2;
 6/7=2,8=2,9=2,10=2,19=2,28=1/1;
 99/9=1/99;
 Leave Link    1 at Fri Aug 23 16:55:47 2019, MaxMem=  2684354560 cpu:         0.6
 (Enter /soft/gaussian/09-e.01/g09/l101.exe)
 --------
 comment:
 --------
 Symbolic Z-matrix:
 Charge =  0 Multiplicity = 2
 H
 
 NAtoms=      1 NQM=        1 NQMF=       0 NMMI=      0 NMMIF=      0
                NMic=       0 NMicF=      0.
                    Isotopes and Nuclear Properties:
 (Nuclear quadrupole moments (NQMom) in fm**2, nuclear magnetic moments (NMagM)
  in nuclear magnetons)

  Atom         1
 IAtWgt=           1
 AtmWgt=   1.0078250
 NucSpn=           1
 AtZEff=   0.0000000
 NQMom=    0.0000000
 NMagM=    2.7928460
 AtZNuc=   1.0000000
 Leave Link  101 at Fri Aug 23 16:55:47 2019, MaxMem=  2684354560 cpu:         0.5
 (Enter /soft/gaussian/09-e.01/g09/l103.exe)

 GradGradGradGradGradGradGradGradGradGradGradGradGradGradGradGradGradGrad
 Berny optimization.
 Initialization pass.
 No Z-matrix variables, so optimization will use Cartesian coordinates.
 Trust Radius=3.00D-01 FncErr=1.00D-07 GrdErr=1.00D-06
 Number of steps in this run=     20 maximum allowed number of steps=    100.
 GradGradGradGradGradGradGradGradGradGradGradGradGradGradGradGradGradGrad

 Leave Link  103 at Fri Aug 23 16:55:47 2019, MaxMem=  2684354560 cpu:         0.1
 (Enter /soft/gaussian/09-e.01/g09/l202.exe)
 ---------------------------------------------------------------------------------------------------
                            Z-MATRIX (ANGSTROMS AND DEGREES)
   CD    Cent   Atom    N1       Length/X        N2       Alpha/Y        N3        Beta/Z          J
 ---------------------------------------------------------------------------------------------------
      1      1  H 
 ---------------------------------------------------------------------------------------------------
                         Z-Matrix orientation:                         
 ---------------------------------------------------------------------
 Center     Atomic      Atomic             Coordinates (Angstroms)
 Number     Number       Type             X           Y           Z
 ---------------------------------------------------------------------
      1          1           0        0.000000    0.000000    0.000000
 ---------------------------------------------------------------------
 Stoichiometry    H(2)
 Framework group  OH[O(H)]
 Deg. of freedom     0
 Full point group                 OH      NOp  48
 Largest Abelian subgroup         D2H     NOp   8
 Largest concise Abelian subgroup C1      NOp   1
                         Standard orientation:                         
 ---------------------------------------------------------------------
 Center     Atomic      Atomic             Coordinates (Angstroms)
 Number     Number       Type             X           Y           Z
 ---------------------------------------------------------------------
      1          1           0        0.000000    0.000000    0.000000
 ---------------------------------------------------------------------
 Leave Link  202 at Fri Aug 23 16:55:47 2019, MaxMem=  2684354560 cpu:         0.3
 (Enter /soft/gaussian/09-e.01/g09/l301.exe)
 Standard basis: CC-pVDZ (5D, 7F)
 Ernie: Thresh=  0.10000D-02 Tol=  0.10000D-05 Strict=F.
 There are     2 symmetry adapted cartesian basis functions of AG  symmetry.
 There are     0 symmetry adapted cartesian basis functions of B1G symmetry.
 There are     0 symmetry adapted cartesian basis functions of B2G symmetry.
 There are     0 symmetry adapted cartesian basis functions of B3G symmetry.
 There are     0 symmetry adapted cartesian basis functions of AU  symmetry.
 There are     1 symmetry adapted cartesian basis functions of B1U symmetry.
 There are     1 symmetry adapted cartesian basis functions of B2U symmetry.
 There are     1 symmetry adapted cartesian basis functions of B3U symmetry.
 There are     2 symmetry adapted basis functions of AG  symmetry.
 There are     0 symmetry adapted basis functions of B1G symmetry.
 There are     0 symmetry adapted basis functions of B2G symmetry.
 There are     0 symmetry adapted basis functions of B3G symmetry.
 There are     0 symmetry adapted basis functions of AU  symmetry.
 There are     1 symmetry adapted basis functions of B1U symmetry.
 There are     1 symmetry adapted basis functions of B2U symmetry.
 There are     1 symmetry adapted basis functions of B3U symmetry.
     5 basis functions,     7 primitive gaussians,     5 cartesian basis functions
     1 alpha electrons        0 beta electrons
       nuclear repulsion energy         0.0000000000 Hartrees.
 IExCor=  402 DFT=T Ex+Corr=B3LYP ExCW=0 ScaHFX=  0.200000
 ScaDFX=  0.800000  0.720000  1.000000  0.810000 ScalE2=  1.000000  1.000000
 IRadAn=      5 IRanWt=     -1 IRanGd=            0 ICorTp=0 IEmpDi=  4
 NAtoms=    1 NActive=    1 NUniq=    1 SFac= 1.00D+00 NAtFMM=   60 NAOKFM=F Big=F
 Integral buffers will be    131072 words long.
 Raffenetti 2 integral format.
 Two-electron integral symmetry is turned on.
 Leave Link  301 at Fri Aug 23 16:55:47 2019, MaxMem=  2684354560 cpu:         0.7
 (Enter /soft/gaussian/09-e.01/g09/l302.exe)
 NPDir=0 NMtPBC=     1 NCelOv=     1 NCel=       1 NClECP=     1 NCelD=      1
         NCelK=      1 NCelE2=     1 NClLst=     1 CellRange=     0.0.
 One-electron integrals computed using PRISM.
 NBasis=     5 RedAO= T EigKep=  8.91D-01  NBF=     2     0     0     0     0     1     1     1
 NBsUse=     5 1.00D-06 EigRej= -1.00D+00 NBFU=     2     0     0     0     0     1     1     1
 Precomputing XC quadrature grid using
 IXCGrd= 4 IRadAn=           5 IRanWt=          -1 IRanGd=           0 AccXCQ= 0.00D+00.
 Generated NRdTot=       0 NPtTot=           0 NUsed=           0 NTot=          32
 NSgBfM=     5     5     5     5     5 MxSgAt=     1 MxSgA2=     1.
 Leave Link  302 at Fri Aug 23 16:55:47 2019, MaxMem=  2684354560 cpu:         1.4
 (Enter /soft/gaussian/09-e.01/g09/l303.exe)
 DipDrv:  MaxL=1.
 Leave Link  303 at Fri Aug 23 16:55:47 2019, MaxMem=  2684354560 cpu:         0.3
 (Enter /soft/gaussian/09-e.01/g09/l401.exe)
 ExpMin= 1.22D-01 ExpMax= 1.30D+01 ExpMxC= 1.30D+01 IAcc=3 IRadAn=         5 AccDes= 0.00D+00
 Harris functional with IExCor=  402 and IRadAn=       5 diagonalized for initial guess.
 HarFok:  IExCor=  402 AccDes= 0.00D+00 IRadAn=         5 IDoV= 1 UseB2=F ITyADJ=14
 ICtDFT=  3500011 ScaDFX=  1.000000  1.000000  1.000000  1.000000
 FoFCou: FMM=F IPFlag=           0 FMFlag=      100000 FMFlg1=           0
         NFxFlg=           0 DoJE=T BraDBF=F KetDBF=T FulRan=T
         wScrn=  0.000000 ICntrl=     500 IOpCl=  0 I1Cent=   200000004 NGrid=           0
         NMat0=    1 NMatS0=      1 NMatT0=    0 NMatD0=    1 NMtDS0=    0 NMtDT0=    0
 Petite list used in FoFCou.
 Harris En=-0.461069318659449    
 JPrj=0 DoOrth=F DoCkMO=F.
 Initial guess orbital symmetries:
 Alpha Orbitals:
       Occupied  (A1G)
       Virtual   (A1G) (T1U) (T1U) (T1U)
 Beta  Orbitals:
       Virtual   (A1G) (A1G) (T1U) (T1U) (T1U)
 The electronic state of the initial guess is 2-A1G.
 Initial guess <Sx>= 0.0000 <Sy>= 0.0000 <Sz>= 0.5000 <S**2>= 0.7500 S= 0.5000
 Leave Link  401 at Fri Aug 23 16:55:47 2019, MaxMem=  2684354560 cpu:         1.3
 (Enter /soft/gaussian/09-e.01/g09/l502.exe)
 UHF open shell SCF:
 Using DIIS extrapolation, IDIIS=  1040.
 Integral symmetry usage will be decided dynamically.
 Keep R1 and R2 ints in memory in symmetry-blocked form, NReq=849721.
 IVT=        7780 IEndB=        7780 NGot=  2684354560 MDV=  2684346170
 LenX=  2684346170 LenY=  2684345288
 Requested convergence on RMS density matrix=1.00D-08 within  64 cycles.
 Requested convergence on MAX density matrix=1.00D-06.
 Requested convergence on             energy=1.00D-06.
 No special actions if energy rises.
 FoFCou: FMM=F IPFlag=           0 FMFlag=           0 FMFlg1=           0
         NFxFlg=           0 DoJE=F BraDBF=F KetDBF=F FulRan=T
         wScrn=  0.000000 ICntrl=     600 IOpCl=  0 I1Cent=           0 NGrid=           0
         NMat0=    1 NMatS0=     15 NMatT0=    0 NMatD0=    1 NMtDS0=    0 NMtDT0=    0
 Petite list used in FoFCou.
 Integral accuracy reduced to 1.0D-05 until final iterations.

 Cycle   1  Pass 0  IDiag  1:
 E=-0.500018160556022    
 DIIS: error= 1.49D-02 at cycle   1 NSaved=   1.
 NSaved= 1 IEnMin= 1 EnMin=-0.500018160556022     IErMin= 1 ErrMin= 1.49D-02
 ErrMax= 1.49D-02  0.00D+00 EMaxC= 1.00D-01 BMatC= 1.78D-03 BMatP= 1.78D-03
 IDIUse=3 WtCom= 8.51D-01 WtEn= 1.49D-01
 Coeff-Com:  0.100D+01
 Coeff-En:   0.100D+01
 Coeff:      0.100D+01
 Gap=     0.736 Goal=   None    Shift=    0.000
 GapD=    0.736 DampG=2.000 DampE=0.500 DampFc=1.0000 IDamp=-1.
 RMSDP=1.11D-02 MaxDP=5.64D-02              OVMax= 0.00D+00

 Cycle   2  Pass 0  IDiag  1:
 E=-0.501257011980828     Delta-E=       -0.001238851425 Rises=F Damp=F
 DIIS: error= 4.08D-04 at cycle   2 NSaved=   2.
 NSaved= 2 IEnMin= 2 EnMin=-0.501257011980828     IErMin= 2 ErrMin= 4.08D-04
 ErrMax= 4.08D-04  0.00D+00 EMaxC= 1.00D-01 BMatC= 1.33D-06 BMatP= 1.78D-03
 IDIUse=3 WtCom= 9.96D-01 WtEn= 4.08D-03
 Coeff-Com: -0.281D-01 0.103D+01
 Coeff-En:   0.000D+00 0.100D+01
 Coeff:     -0.280D-01 0.103D+01
 Gap=     0.738 Goal=   None    Shift=    0.000
 RMSDP=3.13D-04 MaxDP=1.65D-03 DE=-1.24D-03 OVMax= 0.00D+00

 Cycle   3  Pass 0  IDiag  1:
 E=-0.501257936928049     Delta-E=       -0.000000924947 Rises=F Damp=F
 DIIS: error= 9.44D-07 at cycle   3 NSaved=   3.
 NSaved= 3 IEnMin= 3 EnMin=-0.501257936928049     IErMin= 3 ErrMin= 9.44D-07
 ErrMax= 9.44D-07  0.00D+00 EMaxC= 1.00D-01 BMatC= 7.12D-12 BMatP= 1.33D-06
 IDIUse=1 WtCom= 1.00D+00 WtEn= 0.00D+00
 Large coefficients: NSaved=  3 BigCof=    0.00 CofMax=   10.00 Det= 4.24D-22
 Inversion failed.  Reducing to  2 matrices.
 Coeff-Com:  0.231D-02 0.998D+00
 Coeff:      0.231D-02 0.998D+00
 Gap=     0.738 Goal=   None    Shift=    0.000
 RMSDP=7.23D-07 MaxDP=3.81D-06 DE=-9.25D-07 OVMax= 0.00D+00

 Initial convergence to 1.0D-05 achieved.  Increase integral accuracy.
 Cycle   4  Pass 1  IDiag  1:
 E=-0.501257936919923     Delta-E=        0.000000000008 Rises=F Damp=F
 DIIS: error= 6.68D-11 at cycle   1 NSaved=   1.
 NSaved= 1 IEnMin= 1 EnMin=-0.501257936919923     IErMin= 1 ErrMin= 6.68D-11
 ErrMax= 6.68D-11  0.00D+00 EMaxC= 1.00D-01 BMatC= 3.57D-20 BMatP= 3.57D-20
 IDIUse=1 WtCom= 1.00D+00 WtEn= 0.00D+00
 Coeff-Com:  0.100D+01
 Coeff:      0.100D+01
 Gap=     0.738 Goal=   None    Shift=    0.000
 RMSDP=7.23D-07 MaxDP=3.81D-06 DE= 8.13D-12 OVMax= 0.00D+00

 Cycle   5  Pass 1  IDiag  1:
 E=-0.501257936919923     Delta-E=       -0.000000000000 Rises=F Damp=F
 DIIS: error= 1.67D-12 at cycle   2 NSaved=   2.
 NSaved= 2 IEnMin= 2 EnMin=-0.501257936919923     IErMin= 2 ErrMin= 1.67D-12
 ErrMax= 1.67D-12  0.00D+00 EMaxC= 1.00D-01 BMatC= 2.23D-23 BMatP= 3.57D-20
 IDIUse=1 WtCom= 1.00D+00 WtEn= 0.00D+00
 Coeff-Com: -0.256D-01 0.103D+01
 Coeff:     -0.256D-01 0.103D+01
 Gap=     0.738 Goal=   None    Shift=    0.000
 RMSDP=1.28D-12 MaxDP=6.73D-12 DE=-2.22D-16 OVMax= 0.00D+00

 SCF Done:  E(UB3LYP) = -0.501257936920     A.U. after    5 cycles
            NFock=  5  Conv=0.13D-11     -V/T= 2.0112
 <Sx>= 0.0000 <Sy>= 0.0000 <Sz>= 0.5000 <S**2>= 0.7500 S= 0.5000
 <L.S>= 0.000000000000E+00
 KE= 4.957036641710D-01 PE=-9.949751414302D-01 EE=-1.986459660720D-03
 Annihilation of the first spin contaminant:
 S**2 before annihilation     0.7500,   after     0.7500
 Leave Link  502 at Fri Aug 23 16:55:47 2019, MaxMem=  2684354560 cpu:         1.2
 (Enter /soft/gaussian/09-e.01/g09/l508.exe)
 QCSCF skips out because SCF is already converged.
 Leave Link  508 at Fri Aug 23 16:55:47 2019, MaxMem=  2684354560 cpu:         0.0
 (Enter /soft/gaussian/09-e.01/g09/l601.exe)
 Copying SCF densities to generalized density rwf, IOpCl= 1 IROHF=0.

 **********************************************************************

            Population analysis using the SCF density.

 **********************************************************************

 Orbital symmetries:
 Alpha Orbitals:
       Occupied  (A1G)
       Virtual   (A1G) (T1U) (T1U) (T1U)
 Beta  Orbitals:
       Virtual   (A1G) (A1G) (T1U) (T1U) (T1U)
 The electronic state is 2-A1G.
 Alpha  occ. eigenvalues --   -0.31948
 Alpha virt. eigenvalues --    0.41803   1.20992   1.20992   1.20992
  Beta virt. eigenvalues --    0.04592   0.72224   1.53951   1.53951   1.53951
          Condensed to atoms (all electrons):
               1
     1  H    1.000000
          Atomic-Atomic Spin Densities.
               1
     1  H    1.000000
 Mulliken charges and spin densities:
               1          2
     1  H   -0.000000   1.000000
 Sum of Mulliken charges =  -0.00000   1.00000
 Mulliken charges and spin densities with hydrogens summed into heavy atoms:
               1          2
 Electronic spatial extent (au):  <R**2>=              2.9930
 Charge=             -0.0000 electrons
 Dipole moment (field-independent basis, Debye):
    X=              0.0000    Y=              0.0000    Z=              0.0000  Tot=              0.0000
 Quadrupole moment (field-independent basis, Debye-Ang):
   XX=             -1.3419   YY=             -1.3419   ZZ=             -1.3419
   XY=              0.0000   XZ=              0.0000   YZ=              0.0000
 Traceless Quadrupole moment (field-independent basis, Debye-Ang):
   XX=              0.0000   YY=              0.0000   ZZ=              0.0000
   XY=              0.0000   XZ=              0.0000   YZ=              0.0000
 Octapole moment (field-independent basis, Debye-Ang**2):
  XXX=              0.0000  YYY=              0.0000  ZZZ=              0.0000  XYY=              0.0000
  XXY=              0.0000  XXZ=              0.0000  XZZ=              0.0000  YZZ=              0.0000
  YYZ=              0.0000  XYZ=              0.0000
 Hexadecapole moment (field-independent basis, Debye-Ang**3):
 XXXX=             -1.6145 YYYY=             -1.6145 ZZZZ=             -1.6145 XXXY=              0.0000
 XXXZ=              0.0000 YYYX=              0.0000 YYYZ=              0.0000 ZZZX=              0.0000
 ZZZY=              0.0000 XXYY=             -0.5382 XXZZ=             -0.5382 YYZZ=             -0.5382
 XXYZ=              0.0000 YYXZ=              0.0000 ZZXY=              0.0000
 N-N= 0.000000000000D+00 E-N=-9.949751414302D-01  KE= 4.957036641710D-01
 Symmetry AG   KE= 4.957036641710D-01
 Symmetry B1G  KE= 0.000000000000D+00
 Symmetry B2G  KE= 0.000000000000D+00
 Symmetry B3G  KE= 0.000000000000D+00
 Symmetry AU   KE= 0.000000000000D+00
 Symmetry B1U  KE= 0.000000000000D+00
 Symmetry B2U  KE= 0.000000000000D+00
 Symmetry B3U  KE= 0.000000000000D+00
                          Isotropic Fermi Contact Couplings
        Atom                 a.u.       MegaHertz       Gauss      10(-4) cm-1
     1  H(1)               0.26628    1190.22426     424.70160     397.01608
 --------------------------------------------------------
       Center         ----  Spin Dipole Couplings  ----
                      3XX-RR        3YY-RR        3ZZ-RR
 --------------------------------------------------------
     1   Atom        0.000000      0.000000      0.000000
 --------------------------------------------------------
                        XY            XZ            YZ
 --------------------------------------------------------
     1   Atom        0.000000      0.000000      0.000000
 --------------------------------------------------------


 ---------------------------------------------------------------------------------
              Anisotropic Spin Dipole Couplings in Principal Axis System
 ---------------------------------------------------------------------------------

       Atom             a.u.   MegaHertz   Gauss  10(-4) cm-1        Axes

              Baa     0.0000     0.000     0.000     0.000  1.0000  0.0000  0.0000
     1 H(1)   Bbb     0.0000     0.000     0.000     0.000 -0.0000  1.0000  0.0000
              Bcc     0.0000     0.000     0.000     0.000  0.0000  0.0000  1.0000
 

 ---------------------------------------------------------------------------------

 No NMR shielding tensors so no spin-rotation constants.
 Leave Link  601 at Fri Aug 23 16:55:48 2019, MaxMem=  2684354560 cpu:         2.4
 (Enter /soft/gaussian/09-e.01/g09/l701.exe)
 Compute integral first derivatives.
 ... and contract with generalized density number  0.
 Leave Link  701 at Fri Aug 23 16:55:48 2019, MaxMem=  2684354560 cpu:         1.4
 (Enter /soft/gaussian/09-e.01/g09/l702.exe)
 L702 exits ... SP integral derivatives will be done elsewhere.
 Leave Link  702 at Fri Aug 23 16:55:48 2019, MaxMem=  2684354560 cpu:         0.3
 (Enter /soft/gaussian/09-e.01/g09/l703.exe)
 Compute integral first derivatives, UseDBF=F ICtDFT=           0.
 Integral derivatives from FoFJK, PRISM(SPDF).
 Calling FoFJK, ICntrl=      2127 FMM=F ISym2X=1 I1Cent= 0 IOpClX= 1 NMat=1 NMatS=1 NMatT=0.
 FoFJK:  IHMeth= 1 ICntrl=    2127 DoSepK=F KAlg= 0 I1Cent=   0 FoldK=F
 IRaf=         0 NMat=   1 IRICut=       1 DoRegI=T DoRafI=F ISym2E= 1.
 FoFCou: FMM=F IPFlag=           0 FMFlag=      100000 FMFlg1=         800
         NFxFlg=           0 DoJE=F BraDBF=F KetDBF=F FulRan=T
         wScrn=  0.000000 ICntrl=    2127 IOpCl=  1 I1Cent=           0 NGrid=           0
         NMat0=    1 NMatS0=      1 NMatT0=    0 NMatD0=    1 NMtDS0=    0 NMtDT0=    0
 Petite list used in FoFCou.
 Leave Link  703 at Fri Aug 23 16:55:48 2019, MaxMem=  2684354560 cpu:         0.9
 (Enter /soft/gaussian/09-e.01/g09/l716.exe)
 Dipole        = 0.00000000D+00 0.00000000D+00 0.00000000D+00
 ***** Axes restored to original set *****
 -------------------------------------------------------------------
 Center     Atomic                   Forces (Hartrees/Bohr)
 Number     Number              X              Y              Z
 -------------------------------------------------------------------
      1        1          -0.000000000   -0.000000000   -0.000000000
 -------------------------------------------------------------------
 Cartesian Forces:  Max     0.000000000 RMS     0.000000000
 Z-matrix is all fixed cartesians, so copy forces.
 Force constants in Cartesian coordinates: 
                1             2             3 
      1  0.100000D+01
      2  0.000000D+00  0.100000D+01
      3  0.000000D+00  0.000000D+00  0.100000D+01
 Leave Link  716 at Fri Aug 23 16:55:48 2019, MaxMem=  2684354560 cpu:         0.4
 (Enter /soft/gaussian/09-e.01/g09/l103.exe)

 GradGradGradGradGradGradGradGradGradGradGradGradGradGradGradGradGradGrad
 Berny optimization.
 Search for a local minimum.
 Step number   1 out of a maximum of   20
 All quantities printed in internal units (Hartrees-Bohrs-Radians)
 Second derivative matrix not updated -- first step.
 The second derivative matrix:
                          X1        Y1        Z1
           X1           1.00000
           Y1           0.00000   1.00000
           Z1           0.00000   0.00000   1.00000
 ITU=  0
     Eigenvalues ---    1.00000   1.00000   1.00000
 RFO step:  Lambda= 0.00000000D+00 EMin= 1.00000000D+00
 ClnCor:  largest displacement from symmetrization is 0.00D+00 for atom     0.
 Linear search not attempted -- first point.
 ClnCor:  largest displacement from symmetrization is 0.00D+00 for atom     0.
 B after Tr=     0.000000    0.000000    0.000000
         Rot=    1.000000    0.000000    0.000000    0.000000 Ang=   0.00 deg.
 Variable       Old X    -DE/DX   Delta X   Delta X   Delta X     New X
                                 (Linear)    (Quad)   (Total)
    X1        0.00000  -0.00000   0.00000   0.00000   0.00000   0.00000
    Y1        0.00000  -0.00000   0.00000   0.00000   0.00000   0.00000
    Z1        0.00000  -0.00000   0.00000   0.00000   0.00000   0.00000
         Item               Value     Threshold  Converged?
 Maximum Force            0.000000     0.000450     YES
 RMS     Force            0.000000     0.000300     YES
 Maximum Displacement     0.000000     0.001800     YES
 RMS     Displacement     0.000000     0.001200     YES
 Predicted change in Energy=-0.000000D+00
 Optimization completed.
    -- Stationary point found.
 Lowest energy point so far.  Saving SCF results.
 GradGradGradGradGradGradGradGradGradGradGradGradGradGradGradGradGradGrad

 Largest change from initial coordinates is atom    0       0.000 Angstoms.
 Leave Link  103 at Fri Aug 23 16:55:48 2019, MaxMem=  2684354560 cpu:         0.3
 (Enter /soft/gaussian/09-e.01/g09/l202.exe)
                          Input orientation:                          
 ---------------------------------------------------------------------
 Center     Atomic      Atomic             Coordinates (Angstroms)
 Number     Number       Type             X           Y           Z
 ---------------------------------------------------------------------
      1          1           0        0.000000    0.000000    0.000000
 ---------------------------------------------------------------------
 Stoichiometry    H(2)
 Framework group  OH[O(H)]
 Deg. of freedom     0
 Full point group                 OH      NOp  48
 RotChk:  IX=0 Diff= 0.00D+00
 Largest Abelian subgroup         D2H     NOp   8
 Largest concise Abelian subgroup C1      NOp   1
                         Standard orientation:                         
 ---------------------------------------------------------------------
 Center     Atomic      Atomic             Coordinates (Angstroms)
 Number     Number       Type             X           Y           Z
 ---------------------------------------------------------------------
      1          1           0        0.000000    0.000000    0.000000
 ---------------------------------------------------------------------
 Leave Link  202 at Fri Aug 23 16:55:48 2019, MaxMem=  2684354560 cpu:         0.2
 (Enter /soft/gaussian/09-e.01/g09/l9999.exe)
 1\1\GINC-BLUESLOGIN2\FOpt\UB3LYP\CC-pVDZ\H1(2)\ELLIOTT\23-Aug-2019\0\\
 #P b3lyp/cc-pvdz # SCF=(xqc) # POpt=() # int=ultrafine\\comment:\\0,2\
 H,0.,0.,0.\\Version=ES64L-G09RevE.01\State=2-A1G\HF=-0.5012579\S2=0.75
 \S2-1=0.\S2A=0.75\RMSD=1.279e-12\RMSF=0.000e+00\Dipole=0.,0.,0.\Quadru
 pole=0.,0.,0.,0.,0.,0.\PG=OH [O(H1)]\\@


 SOME PEOPLE TRY TO PULL THE WOOL OVER YOUR EYES
 USING THE WRONG YARN.
 Job cpu time:       0 days  0 hours  0 minutes 13.1 seconds.
 File lengths (MBytes):  RWF=     72 Int=      0 D2E=      0 Chk=      2 Scr=      2
 Normal termination of Gaussian 09 at Fri Aug 23 16:55:48 2019.
