[Molden Format]
[Molpro variables]
_NUMVAR=  709.0000000000000    
_EV2006= 0.3674930886769165E-01
_EV= 0.3674932534394180E-01
_KJOULE= 0.3808798324128737E-03
_KJOULE/MOL= 0.3808798324128737E-03
_CM= 0.4556335267302901E-05
_CM-1= 0.4556335267302901E-05
_KCAL= 0.1593601117815568E-02
_KCAL/MOL= 0.1593601117815568E-02
_KELVIN2006= 0.3166828861084835E-05
_KELVIN= 0.3166814820820034E-05
_HERTZ2006= 0.1519829850815779E-15
_HERTZ= 0.1519829846011223E-15
_HZ2006= 0.1519829850815779E-15
_HZ= 0.1519829846011223E-15
_TOA2006= 0.5291772490000000    
_TOA= 0.5291772090000000    
_TOANG2006= 0.5291772490000000    
_TOANG= 0.5291772090000000    
_TORAD= 0.1745329251994330E-01
_TOCM=  219474.6306700000    
_TODEBYE=  2.541580000000000    
_TOEV2006=  27.21139610000000    
_TOEV=  27.21138390000000    
_TOHERTZ2006=  6579683899900000.    
_TOHERTZ=  6579683920700000.    
_TOHZ2006=  6579683899900000.    
_TOHZ=  6579683920700000.    
_TOK2006=  315773.3000000000    
_TOK=  315774.7000000000    
_TOKCAL=  627.5096000000000    
_TOKELVIN2006=  315773.3000000000    
_TOKELVIN=  315774.7000000000    
_TOKJ=  2625.500000000000    
_TOKJOULE=  2625.500000000000    
_ANG2006=  1.889725988578923    
_ANG=  1.889726131421507    
_ANGSTROM2006=  1.889725988578923    
_ANGSTROM=  1.889726131421507    
_IGNORE_UNDEF=  2.000000000000000    
_STRICTCHECK=  0.000000000000000    
_SEW_ONEEL=  0.000000000000000    
_CPPDONE=FALSE
_DKROLL_DONE=  0.000000000000000    
_FOCKDONE=  0.000000000000000    
_GRADONE=FALSE
_HESSDONE=TRUE
_INTDONE=TRUE
_SCFDONE=FALSE
_MODUL_CUDA=FALSE
_MODUL_SLATER=FALSE
_MODUL_MRCC=FALSE
_MRCC_EXEC=
_FITC_AO_SAVED=FALSE
_FITC_MO_SAVED=FALSE
_SHARED_FS=TRUE
_LSTYP=SEWARD
_INTYP=INTS
_GEOMTYP=ZMAT
_GRADTYP=ALASKA
_DIRECT=FALSE
_SYNCM=  0.000000000000000    
_BASIS=CC-PVDZ
_ZORIENT=  1.000000000000000    
_NELEC=  16.00000000000000    
_SPIN=  0.000000000000000    
!SPIN=  0.000000000000000    
_OPTCONV= 0.1732599875801557E-02
_QSDSTEP=  0.000000000000000    
_QSDIRC=  0.000000000000000    
_PROGRAM=FREQ
_CPUSTEP=  0.000000000000000    
_SYSSTEP=  0.000000000000000    
_WALLSTEP= 0.1600000000000000    
!DFMP2=  0.000000000000000    
!DFSCF=  0.000000000000000    
!SCSGRD=  0.000000000000000    
_BASINP=  610.0000000000000    
_CPUTOT=  120.3300000000000    
_DFTEXFAC=  1.000000000000000    
_DMX= 0.1822648621651479E-04
_DMY= 0.3023141797775961    
_DMZ= 0.2881202903807860    
_FREQUENCIES= -922.5815352776982    
_EMP2= -78.16655321237755    
_ENERGR= -77.93986990790353    
_ENERGU= -78.21443508679081    
_ENERGY= -78.16655321237755    
_ENUC=  30.81160202105771    
_FREQSTEP=  37.00000000000000    
!RS2GRSTATE=  1.000000000000000    
!RS2GRSYM=  1.000000000000000    
_GRADENERG= -78.16654563115534    
_GRADEXFAC=  9999.000000000000    
_GRADMETHOD=TRUE
_GRADRECORD=  5200.100000000000    
_VIRIAL= 0.1320216183269237    
!GRID_FREEZE= -1.000000000000000    
_ITERATIONS=  0.000000000000000    
_LASTNELEC=  4.000000000000000    
_LASTSPIN=  0.000000000000000    
_LASTSYM=  1.000000000000000    
_MPP_PROG=  1.000000000000000    
_MSENERGY= -78.16655321237755    
_NPROC_MPP=  4.000000000000000    
_NPROC_SMP=  1.000000000000000    
_NUMSTEP=  0.000000000000000    
_OPTCONVMX= 0.1157019087235181E-02
_OPTCONVRMS= 0.1575090796183234E-03
_OPTGRAD= 0.2735124059220140E-03
_OPTGRADMX= 0.1569875769128958E-03
_OPTGRADRMS= 0.2486476417472855E-04
_OPTSTEP=  6.000000000000000    
_ORBITAL=  2143.200000000000    
_PI=  3.141592653589793    
!MCACT=  4.000000000000000    
!MCCLOSED=  6.000000000000000    
!MCFREEZE=  0.000000000000000    
!MCMS2=  0.000000000000000    
!MCNEL=  4.000000000000000    
!MCNSTSYM=  1.000000000000000    
!MCSTATE=  1.000000000000000    
!MCSYM=  1.000000000000000    
!MCWEIGHT=  1.000000000000000    
_SEIG_MIN= 0.4114373615433319E-02
_SEWPROP=TRUE
_STATUS=  1.000000000000000    
_SYSTOT=  7.630000000000000    
_VERSION=  2010001.000000000    
_WALLTOT=  368.1800000000000    
_ZPE= 0.3935552715736206E-01
_DATE=05-Sep-19
_LASTORB=MCSCF
_MACHINE=Linux-2.6.34-12-desktop/tt108(x86_64) 64 bit mpp version
_OUTPUT=/home/carlo/qm/combustion/barrierless/c2h4_c2h3_h/dist_2.4/molpro.xml
_PGROUP=C1
_TIME=23:45:27
_LIBMOL=/programs/molpro2010p/bin/../lib/
!SURFREC=  0.000000000000000    
!POLYREC=  0.000000000000000    
!DIPREC=  0.000000000000000    
!VSCFREC=  0.000000000000000    
!VCIREC=  0.000000000000000    
!PVCIREC=  0.000000000000000    
!VMP2REC=  0.000000000000000    
!VMCSCFREC=  0.000000000000000    
!GAREC=  0.000000000000000    
!SCFORB=  21002.00000000000    
!MCORB=  21432.00000000000    
!CIOCC=  10.00000000000000    
!CICORE=  2.000000000000000    
!CICLOS=  6.000000000000000    
!CIISTSYM=  1.000000000000000    
!CIISTMS2=  0.000000000000000    
!CIISTNEL=  12.00000000000000    
!NEWMOL=  0.000000000000000    
!NEWSYM=  0.000000000000000    
_SLFILES=slscratch
_NGSSTO=  9.000000000000000    
_SIN=SIN
_COS=COS
_TAN=TAN
_ACOS=ACOS
_ASIN=ASIN
_ATAN=ATAN
_COSH=COSH
_SINH=SINH
_TANH=TANH
_ABS=ABS
_MOD=MOD
_ERF=ERF
_REFC=REFC
_ERFC=ERFC
_HYPOT=HYPOT
_J0=J0
_J1=J1
_JN=JN
_GAMMA=GAMMA
_LGAMMA=LGAMMA
_Y0=Y0
_Y1=Y1
_YN=YN
_EXP=EXP
_LOG=LOG
_LOG10=LOG10
_SQRT=SQRT
_INT=INT
_NINT=NINT
_MAX=MAX
_MIN=MIN
_COSMO=  0.000000000000000    
_COSMOIT=  0.000000000000000    
_COSMOES=  0.000000000000000    
_COSMOEDS=  0.000000000000000    
_COSMOEC=  0.000000000000000    
_COSMOEDCORR=  0.000000000000000    
_FEPSI=  1.000000000000000    
_SL_IsMM=  0.000000000000000    
_SL_NSYM=  0.000000000000000    
_SL_System_BitSw=  0.000000000000000    
_SL_Unique_atoms=  0.000000000000000    
_SL_GRAD=  0.000000000000000    
_SL_MAXUPD_Hess=  5.000000000000000    
_SL_N_PRINT_COD=  5.000000000000000    
_SL_PRINT_CODES=  0.000000000000000    
_SL_BasType=  0.000000000000000    
_SL_Energy_Pred=  0.000000000000000    
_SL_New_Coords=  0.000000000000000    
_SL_Total_Nuclea=  0.000000000000000    
_SL_Highest_Mltp=  0.000000000000000    
_SL_Ref_Geom=  0.000000000000000    
!LATTICE= -1.000000000000000    
!NEWLATTICE=  0.000000000000000    
!LATGRAD_VAR=FALSE
!SEW_LATTICE=  1.000000000000000    
!LOCAL=  0.000000000000000    
!SAVEDOM= -1.000000000000000    
!RESTDOM= -1.000000000000000    
!SAVEDOM_HF= -1.000000000000000    
!RESTDOM_HF= -1.000000000000000    
!HESSREC=  5300.200000000000    
!FREQREC=  5400.200000000000    
!NMODREC=  5450.200000000000    
!GTASKS=  0.000000000000000    
!HTASKS=  5500.200000000000    
!THRCHG= 0.1000000000000000    
!DEBUG= -1.000000000000000    
!CFIT_CPHF=  0.000000000000000    
!RDOMAUX_CPHF=  3.000000000000000    
!THRAO_CPHF= 0.1000000000000000E-09
!THRMO_CPHF= 0.1000000000000000E-09
!THROV_CPHF= 0.1000000000000000E-11
!THRSW_CPHF= 0.1000000000000000E-09
!THRPROD_CPHF= 0.1000000000000000E-09
!THRAOPR_CPHF= 0.1000000000000000E-11
!CFIT_SCFGRD=  0.000000000000000    
!RDOMAUX_SCFGRD=  5.000000000000000    
!THRAO_SCFGRD= 0.1000000000000000E-09
!THRMO_SCFGRD= 0.1000000000000000E-09
!THROV_SCFGRD= 0.1000000000000000E-11
!THRSW_SCFGRD= 0.1000000000000000E-09
!THRPROD_SCFGRD= 0.1000000000000000E-09
!THRAOPR_SCFGRD= 0.1000000000000000E-11
!LOCFIT_SCF=  0.000000000000000    
!LOCFIT_MP2= -1.000000000000000    
_RIDOM=  0.000000000000000    
!CC2_METHOD=  0.000000000000000    
_BASIS2006=FALSE
_SVDDEL= -1.000000000000000    
_SVDDELA= -1.000000000000000    
_SVDDELP= -1.000000000000000    
_SVDDELF= -1.000000000000000    
_SVDDELS= -1.000000000000000    
_SVDDEL_ABS= -1.000000000000000    
_SVDDELA_ABS= -1.000000000000000    
_SVDDELP_ABS= -1.000000000000000    
_SVDDELF_ABS= -1.000000000000000    
_SVDDELS_ABS= -1.000000000000000    
_MAXBASIS=  0.000000000000000    
!OPT_CONICAL=  0.000000000000000    
!CLEARSP_JGRID=  0.000000000000000    
RCC1=  1.333777056060489    
RCC2=  1.099162369468706    
RCC3=  1.093247419089171    
RCH2=  1.090684472603686    
ACCC1=  120.0779830872263    
AHCC1=  122.2441739744286    
AHCC2=  118.0057462797500    
AHCC3=  135.3816049068579    
B1=  179.9947138260117    
B2=  180.0099586214509    
B3=  180.0076270771228    
RCH1=  2.400000000000000    
GX1=-0.1245367710169378E-04
GY1= 0.3357234092082830    
GZ1= -1.163916246034666    
GX2= 0.1512695818248616E-04
GY2=-0.1808407657888370    
GZ2=  1.303055053414914    
GX3=-0.2542738144302661E-03
GY3=  1.365074080853403    
GZ3=  2.690339262964247    
GX4= 0.1389450083506469E-03
GY4= -2.116984122823780    
GZ4=  2.023783572241871    
GX5=-0.1061969198476073E-03
GY5= -3.147075633246767    
GZ5= -4.068988425400196    
GX6= 0.1896698822645113E-03
GY6=  2.053344634965771    
GZ6= -2.303165855570706    
C1X1=-0.1245367710169323E-04
C1Y1= 0.3357234092082830    
C1Z1= -1.163916246034666    
C2X2= 0.1512695818248547E-04
C2Y2=-0.1808407657888370    
C2Z2=  1.303055053414914    
H3X3=-0.2542738144302656E-03
H3Y3=  1.365074080853403    
H3Z3=  2.690339262964247    
H4X4= 0.1389450083506463E-03
H4Y4= -2.116984122823780    
H4Z4=  2.023783572241871    
H5X5=-0.1061969198476072E-03
H5Y5= -3.147075633246767    
H5Z5= -4.068988425400196    
H6X6= 0.1896698822645114E-03
H6Y6=  2.053344634965771    
H6Z6= -2.303165855570706    
CBSEN= -78.16655321237755    
[Atoms] Angs
C     1    6        -0.0000065902        0.1776571767       -0.6159179506
C     2    6         0.0000080048       -0.0956968117        0.6895470363
H     3    1        -0.0001345559        0.7223660922        1.4236662224
H     4    1         0.0000735265       -1.1202597496        1.0709401424
H     5    1        -0.0000561970       -1.6653607001       -2.1532159384
H     6    1         0.0001003690        1.0865831830       -1.2187828793
[GTO]
  1 0
 s    9  1.00
  0.6665000000D+04  0.6920001793D-03
  0.1000000000D+04  0.5329001381D-02
  0.2280000000D+03  0.2707700701D-01
  0.6471000000D+02  0.1017180264D+00
  0.2106000000D+02  0.2747400712D+00
  0.7495000000D+01  0.4485641162D+00
  0.2797000000D+01  0.2850740738D+00
  0.5215000000D+00  0.1520400394D-01
  0.1596000000D+00 -0.3191000827D-02
 s    9  1.00
  0.6665000000D+04 -0.1460000642D-03
  0.1000000000D+04 -0.1154000508D-02
  0.2280000000D+03 -0.5725002519D-02
  0.6471000000D+02 -0.2331201026D-01
  0.2106000000D+02 -0.6395502813D-01
  0.7495000000D+01 -0.1499810660D+00
  0.2797000000D+01 -0.1272620560D+00
  0.5215000000D+00  0.5445292395D+00
  0.1596000000D+00  0.5804962554D+00
 s    9  1.00
  0.6665000000D+04  0.0000000000D+00
  0.1000000000D+04  0.0000000000D+00
  0.2280000000D+03  0.0000000000D+00
  0.6471000000D+02  0.0000000000D+00
  0.2106000000D+02  0.0000000000D+00
  0.7495000000D+01  0.0000000000D+00
  0.2797000000D+01  0.0000000000D+00
  0.5215000000D+00  0.0000000000D+00
  0.1596000000D+00  0.1000000000D+01
 p    4  1.00
  0.9439000000D+01  0.3810902127D-01
  0.2002000000D+01  0.2094801169D+00
  0.5456000000D+00  0.5085572839D+00
  0.1517000000D+00  0.4688422617D+00
 p    4  1.00
  0.9439000000D+01  0.0000000000D+00
  0.2002000000D+01  0.0000000000D+00
  0.5456000000D+00  0.0000000000D+00
  0.1517000000D+00  0.1000000000D+01
 d    1  1.00
  0.5500000000D+00  0.1000000000D+01
  
  2 0
 s    9  1.00
  0.6665000000D+04  0.6920001793D-03
  0.1000000000D+04  0.5329001381D-02
  0.2280000000D+03  0.2707700701D-01
  0.6471000000D+02  0.1017180264D+00
  0.2106000000D+02  0.2747400712D+00
  0.7495000000D+01  0.4485641162D+00
  0.2797000000D+01  0.2850740738D+00
  0.5215000000D+00  0.1520400394D-01
  0.1596000000D+00 -0.3191000827D-02
 s    9  1.00
  0.6665000000D+04 -0.1460000642D-03
  0.1000000000D+04 -0.1154000508D-02
  0.2280000000D+03 -0.5725002519D-02
  0.6471000000D+02 -0.2331201026D-01
  0.2106000000D+02 -0.6395502813D-01
  0.7495000000D+01 -0.1499810660D+00
  0.2797000000D+01 -0.1272620560D+00
  0.5215000000D+00  0.5445292395D+00
  0.1596000000D+00  0.5804962554D+00
 s    9  1.00
  0.6665000000D+04  0.0000000000D+00
  0.1000000000D+04  0.0000000000D+00
  0.2280000000D+03  0.0000000000D+00
  0.6471000000D+02  0.0000000000D+00
  0.2106000000D+02  0.0000000000D+00
  0.7495000000D+01  0.0000000000D+00
  0.2797000000D+01  0.0000000000D+00
  0.5215000000D+00  0.0000000000D+00
  0.1596000000D+00  0.1000000000D+01
 p    4  1.00
  0.9439000000D+01  0.3810902127D-01
  0.2002000000D+01  0.2094801169D+00
  0.5456000000D+00  0.5085572839D+00
  0.1517000000D+00  0.4688422617D+00
 p    4  1.00
  0.9439000000D+01  0.0000000000D+00
  0.2002000000D+01  0.0000000000D+00
  0.5456000000D+00  0.0000000000D+00
  0.1517000000D+00  0.1000000000D+01
 d    1  1.00
  0.5500000000D+00  0.1000000000D+01
  
  3 0
 s    4  1.00
  0.1301000000D+02  0.1968498999D-01
  0.1962000000D+01  0.1379769298D+00
  0.4446000000D+00  0.4781477569D+00
  0.1220000000D+00  0.5012397451D+00
 s    4  1.00
  0.1301000000D+02  0.0000000000D+00
  0.1962000000D+01  0.0000000000D+00
  0.4446000000D+00  0.0000000000D+00
  0.1220000000D+00  0.1000000000D+01
 p    1  1.00
  0.7270000000D+00  0.1000000000D+01
  
  4 0
 s    4  1.00
  0.1301000000D+02  0.1968498999D-01
  0.1962000000D+01  0.1379769298D+00
  0.4446000000D+00  0.4781477569D+00
  0.1220000000D+00  0.5012397451D+00
 s    4  1.00
  0.1301000000D+02  0.0000000000D+00
  0.1962000000D+01  0.0000000000D+00
  0.4446000000D+00  0.0000000000D+00
  0.1220000000D+00  0.1000000000D+01
 p    1  1.00
  0.7270000000D+00  0.1000000000D+01
  
  5 0
 s    4  1.00
  0.1301000000D+02  0.1968498999D-01
  0.1962000000D+01  0.1379769298D+00
  0.4446000000D+00  0.4781477569D+00
  0.1220000000D+00  0.5012397451D+00
 s    4  1.00
  0.1301000000D+02  0.0000000000D+00
  0.1962000000D+01  0.0000000000D+00
  0.4446000000D+00  0.0000000000D+00
  0.1220000000D+00  0.1000000000D+01
 p    1  1.00
  0.7270000000D+00  0.1000000000D+01
  
  6 0
 s    4  1.00
  0.1301000000D+02  0.1968498999D-01
  0.1962000000D+01  0.1379769298D+00
  0.4446000000D+00  0.4781477569D+00
  0.1220000000D+00  0.5012397451D+00
 s    4  1.00
  0.1301000000D+02  0.0000000000D+00
  0.1962000000D+01  0.0000000000D+00
  0.4446000000D+00  0.0000000000D+00
  0.1220000000D+00  0.1000000000D+01
 p    1  1.00
  0.7270000000D+00  0.1000000000D+01
 
 
[MO]
 Sym=      1.1
 Ene=     -11.2623
 Spin= Alpha
 Occup=    2.000000
1 1.00013882142351
2 0.006370928079408
3 -0.007360738937765
4 0.000000829977758
5 0.001168753470200
6 0.000425158833288
7 -0.000000256156253
8 -0.000610021614029
9 -0.000746940909788
10 -0.000610584235058
11 0.000054797463592
12 0.000555786771466
13 0.000000086487495
14 -0.000000049574717
15 -0.001151687986637
16 0.042922358958674
17 -0.000958746250504
18 0.002244300896177
19 0.000000630713497
20 -0.000121413603775
21 0.000382640784508
22 -0.000000004763660
23 0.000669070258810
24 -0.001379518041903
25 0.000259970179497
26 0.000050028994019
27 -0.000309999173516
28 0.000000023970485
29 -0.000000049546535
30 -0.000465766083392
31 0.000201652401323
32 0.000051948407294
33 0.000000064517022
34 -0.000230858121725
35 -0.000135349197096
36 -0.000011047211425
37 0.000661320939947
38 0.000000007483126
39 -0.000002453055846
40 -0.000131061600529
41 -0.000423028193805
42 0.000247725114187
43 0.000000007266924
44 0.000123755631402
45 0.000119898350420
46 -0.001304007814876
47 0.002076775708283
48 0.000000115713980
49 0.000803222359885
50 -0.000148595606578
 Sym=      2.1
 Ene=     -11.2436
 Spin= Alpha
 Occup=    2.000000
1 -0.043953776397516
2 -0.001156365083278
3 0.002914594737076
4 -0.000000241589811
5 -0.000056030819533
6 -0.000371888349907
7 -0.000000007502418
8 -0.000396495738334
9 0.001217896804311
10 0.000336913259945
11 -0.000084742584470
12 -0.000252170675475
13 0.000000023836977
14 -0.000000009603501
15 0.000149329070441
16 1.00049472353348
17 0.008454965547052
18 -0.009483834905399
19 -0.000000415987509
20 0.000010351445170
21 -0.000025191146744
22 0.000000191982952
23 -0.000044338499154
24 0.000626191197443
25 -0.000735355444959
26 0.000266240225922
27 0.000469115219037
28 -0.000000114931868
29 -0.000000049350929
30 -0.000064901672121
31 -0.000560593715182
32 0.001471653602148
33 -0.000000086026833
34 0.000443975189231
35 0.000309082625978
36 -0.000564284496772
37 0.001540365201004
38 0.000000019758739
39 -0.000522181196084
40 0.000115484536201
41 -0.000009868196898
42 -0.000003900260867
43 -0.000000000786365
44 -0.000010551968334
45 -0.000031703000999
46 0.000203556166566
47 0.000143216118697
48 -0.000000041560909
49 -0.000143209546648
50 0.000079237953804
 Sym=      3.1
 Ene=      -1.0213
 Spin= Alpha
 Occup=    2.000000
1 -0.017032178664178
2 0.56113565135364
3 -0.12713918515499
4 0.000020533146949
5 0.007806359515885
6 0.23733129255297
7 -0.000002831754311
8 -0.001445584078796
9 -0.060898352911121
10 -0.010374096054374
11 -0.011420590163431
12 0.021794686217805
13 0.000000053051105
14 0.000001274160665
15 -0.008772518920604
16 -0.023261247507586
17 0.65816350086479
18 -0.18898493180160
19 0.000007385799101
20 0.044135360633615
21 -0.17313418735751
22 0.000001788184603
23 -0.011784205096883
24 0.072020831319426
25 -0.007175299036845
26 -0.009314691644697
27 0.016489990681542
28 0.000000495535133
29 -0.000000412459563
30 -0.008598808568220
31 0.21127996614464
32 -0.10534405013802
33 0.000002723346191
34 -0.013812100723340
35 -0.015382683424821
36 0.21362796174691
37 -0.096557701664931
38 -0.000000993009608
39 0.017956049562482
40 -0.009099741074655
41 -0.005305790289970
42 -0.006823381729300
43 0.000000061443255
44 0.000032441017166
45 -0.000225395313543
46 0.16756628808212
47 -0.071566169132705
48 -0.000000836377668
49 -0.010200446590000
50 0.011012492410238
 Sym=      4.1
 Ene=      -0.7630
 Spin= Alpha
 Occup=    2.000000
1 -0.010937666774732
2 0.51761143650307
3 -0.092552013927817
4 0.000048928717152
5 0.22764067784219
6 -0.13130487791633
7 -0.000007292015124
8 -0.053397950870487
9 0.033706833560626
10 -0.002541872096636
11 0.007478748697547
12 -0.004936876600911
13 0.000001257683472
14 0.000001020006078
15 -0.004799630018970
16 0.011072874685932
17 -0.38141201104279
18 0.056524319843225
19 0.000035340244877
20 0.11833439837933
21 -0.27732820960261
22 -0.000002439294348
23 -0.025055952724117
24 0.062585780210432
25 0.000781559970392
26 -0.010834069333913
27 0.010052509363522
28 0.000001810554178
29 -0.000001072520104
30 -0.010302631030200
31 -0.28208778453845
32 0.098729949916274
33 -0.000001793361430
34 0.015778957168008
35 0.008411420281988
36 -0.35247373100456
37 0.14025668423418
38 0.000002332188701
39 -0.022171812402581
40 0.003306216395782
41 -0.006225240027902
42 -0.008987318669108
43 0.000000108563357
44 0.000211625713776
45 0.000097478864783
46 0.48689467160541
47 -0.18067456973735
48 -0.000002559867978
49 -0.023372307407469
50 0.016606192482014
 Sym=      5.1
 Ene=      -0.6161
 Spin= Alpha
 Occup=    2.000000
1 -0.002573708310974
2 -0.10853019021585
3 0.057871880728909
4 0.000000738548370
5 0.31122656475223
6 -0.39313308969824
7 -0.000001903246182
8 -0.082873185882351
9 0.10541725220636
10 -0.000221259681877
11 0.010570154240672
12 -0.010348894558795
13 0.000001696634934
14 -0.000003252242620
15 0.006695347749084
16 -0.002990323695947
17 0.008890947062320
18 0.019673152528618
19 -0.000046352611467
20 0.24588220528519
21 0.53641600138942
22 0.000007849867657
23 -0.046320232522593
24 -0.11829607200705
25 -0.000958852760283
26 0.014324522042184
27 -0.013365669281902
28 -0.000002531517055
29 -0.000002669401222
30 0.010984984980734
31 0.53086118239967
32 -0.15652744394336
33 0.000003277894854
34 -0.018855602278221
35 -0.010778150993541
36 -0.031007419257062
37 0.013919541385338
38 -0.000000787158293
39 0.002053530847611
40 0.009636045654896
41 0.008761883703961
42 0.007574479906539
43 -0.000000012882555
44 0.000330788270005
45 -0.000135105685282
46 0.37028210086488
47 -0.11342486452105
48 -0.000002578436340
49 -0.014027358290253
50 0.005123773187665
 Sym=      6.1
 Ene=      -0.5765
 Spin= Alpha
 Occup=    2.000000
1 0.002488309261865
2 -0.034840656082165
3 -0.028924625076823
4 -0.000020789239793
5 -0.11466789832385
6 0.32654238590832
7 0.000008074836751
8 0.021443313783099
9 -0.093907527789626
10 0.002002972560663
11 -0.016846074609814
12 0.014843102049151
13 -0.000001002964535
14 -0.000000047710701
15 0.024144985757574
16 0.000791869315061
17 0.029323047513073
18 -0.009332705512547
19 -0.000048675634745
20 0.57886998293195
21 -0.18038148837859
22 0.000013604769494
23 -0.11470061439350
24 0.032396455461408
25 -0.000603747596820
26 -0.015255503872820
27 0.015859251469640
28 -0.000000777178392
29 -0.000000698313588
30 0.017065748646567
31 0.33577789336715
32 -0.084538223766794
33 0.000001495940472
34 -0.002154804301284
35 -0.015451081474399
36 -0.59627862317949
37 0.16548183117234
38 0.000000984395769
39 -0.019464519033388
40 0.008584828126122
41 0.013363592336929
42 0.012808033297911
43 -0.000000000865632
44 -0.000021077929231
45 0.000026465510434
46 -0.31680255695654
47 0.076496238412831
48 0.000000951376086
49 0.008583822137361
50 -0.003625763913404
 Sym=      7.1
 Ene=      -0.3710
 Spin= Alpha
 Occup=    1.902706
1 -0.000000359525763
2 -0.000098586270553
3 -0.000005468106181
4 0.61160316643734
5 0.000025982494700
6 0.000042046643338
7 -0.019059530140075
8 -0.000006831769961
9 0.000000928502596
10 -0.000000443714758
11 -0.000001157596553
12 0.000001601311311
13 -0.002661527971988
14 0.029556931621362
15 0.000003189497356
16 0.000000583344052
17 0.000038441765346
18 0.000003597180745
19 0.60197402719168
20 0.000056549835146
21 0.000025435029510
22 0.000298551208349
23 0.000003731126307
24 -0.000000808507290
25 -0.000000662993423
26 0.000001515547252
27 -0.000000852553829
28 0.006675869877061
29 -0.027716787813606
30 -0.000000114602863
31 0.000007630526592
32 -0.000002407333897
33 0.013296413224564
34 0.000001574133755
35 0.000000700574671
36 0.000003924238621
37 -0.000006634696464
38 0.013227873630328
39 0.000001897895198
40 0.000000162472262
41 -0.000007195811006
42 0.000003564758602
43 0.001364740007100
44 -0.000000406270553
45 -0.000000415518673
46 -0.000002222083213
47 0.000002677336962
48 0.014295430243180
49 -0.000000637026845
50 0.000001282348721
 Sym=      8.1
 Ene=      -0.2824
 Spin= Alpha
 Occup=    1.595139
1 -0.002079670807234
2 0.20400350742932
3 0.074066465021755
4 0.000054258760241
5 -0.43297254567360
6 -0.31172002180315
7 0.000006632445925
8 -0.026985560259587
9 -0.013918414112704
10 0.000321329834425
11 0.002147433715438
12 -0.002468763549863
13 -0.000002417507282
14 0.000000717653045
15 0.019599580196107
16 -0.001400660795805
17 -0.078877064868711
18 0.020471888552046
19 0.000027003346848
20 0.015565699345776
21 0.089144630467034
22 0.000000640498034
23 0.044640198620757
24 -0.017480803766784
25 0.000790647380954
26 -0.008510422631849
27 0.007719775250895
28 0.000000396091326
29 -0.000003741238112
30 0.023971621725911
31 0.11157356660202
32 0.011814716318196
33 0.000000717191739
34 -0.000178536589719
35 0.000716586138244
36 -0.083150749165674
37 0.017873829790520
38 0.000000656553955
39 0.000676454874008
40 0.002102136766373
41 0.62850696280712
42 0.039984029520895
43 0.000000307428704
44 0.001315184791408
45 0.000957510554202
46 -0.14325871391500
47 0.019322303382172
48 0.000001765757647
49 -0.005784718297100
50 -0.008410350309892
 Sym=      9.1
 Ene=      -0.0026
 Spin= Alpha
 Occup=    0.404911
1 -0.003043527050700
2 -0.30004686852704
3 -0.11667147105065
4 -0.000054724764400
5 0.55494367751797
6 0.41215439245971
7 -0.000005648767488
8 0.032123062828991
9 -0.005954108558146
10 0.001309642033861
11 -0.004658310627774
12 0.003348668593914
13 0.000003912187692
14 0.000000812590426
15 -0.029766027525320
16 0.000221908484602
17 0.077264569159173
18 0.001366495639471
19 -0.000007257920060
20 -0.023427166103945
21 -0.10983492059715
22 0.000003733093104
23 -0.062927043760506
24 0.005382280142019
25 -0.002661224438925
26 0.010474547753744
27 -0.007813323314819
28 -0.000000546490178
29 0.000003973921134
30 -0.027029521512134
31 -0.13318179199355
32 0.001083682962507
33 -0.000000287318114
34 0.000394470676807
35 0.000968728246202
36 0.087254540204974
37 -0.022681565332457
38 -0.000000184483676
39 -0.001335237831628
40 -0.003466862774183
41 0.84176255104393
42 -0.071739961153751
43 -0.000000032205016
44 -0.001007057542924
45 -0.000667306628451
46 0.15065033989224
47 -0.029577268654622
48 -0.000001606785345
49 0.006965989754904
50 0.009155802249290
 Sym=     10.1
 Ene=       0.2157
 Spin= Alpha
 Occup=    0.097243
1 -0.000011022106200
2 -0.000103245413738
3 -0.000002374300198
4 0.90980316981102
5 0.000000684093799
6 0.000048426437264
7 -0.061071945463485
8 -0.000002543104335
9 -0.000034201797989
10 -0.000022988909297
11 0.000010545124005
12 0.000012443785292
13 -0.006682150994849
14 -0.008523796149222
15 -0.000006298818880
16 -0.000002826121483
17 -0.000013335275837
18 0.000012513127033
19 -0.85492763181155
20 -0.000071977746668
21 -0.000066506604591
22 0.009384469625380
23 0.000005674419599
24 -0.000007011652169
25 -0.000010324994033
26 0.000004336766887
27 0.000005988227146
28 0.001553492539541
29 -0.009673122325496
30 0.000000917930006
31 0.000031109786539
32 0.000003812916847
33 -0.011139871558968
34 -0.000001116658094
35 -0.000001897747850
36 -0.000004220568326
37 0.000006565238846
38 -0.011041069671273
39 -0.000001530498365
40 -0.000000786677499
41 0.000000811004660
42 0.000007556279132
43 -0.001050729015138
44 0.000001014090766
45 0.000000963496651
46 0.000050314621566
47 -0.000009517606067
48 0.011734558393062
49 -0.000000371270707
50 0.000001509017539
 Sym=     11.1
 Ene=       0.2090
 Spin= Alpha
 Occup=    0.000000
1 -0.019020864049475
2 0.054505348882544
3 0.63240470292652
4 0.000019985031388
5 0.13068131930505
6 -0.11947288238676
7 0.000066944514880
8 0.25465170913086
9 -0.29294506389839
10 -0.003895946158124
11 0.003780412817561
12 0.000115533340563
13 0.000004507954123
14 -0.000001851562986
15 -0.011473642268639
16 -0.061073746028042
17 0.14915360283476
18 1.73159025683088
19 -0.000030021425240
20 0.045985415526537
21 0.25080036780692
22 -0.000085303081613
23 0.015018310960847
24 0.49229120259154
25 -0.021141815162010
26 0.019471418445563
27 0.001670396716448
28 -0.000005584690251
29 -0.000003128263977
30 -0.002898574736190
31 -0.033923947225900
32 -1.47614450330767
33 -0.000002451869553
34 0.013091273163355
35 0.015229340646031
36 -0.034938882321673
37 -0.93888173211440
38 0.000001031020475
39 -0.015607916106026
40 0.007473642730348
41 0.064836985560824
42 -0.020836048513543
43 -0.000000041866643
44 0.000858280857294
45 -0.007036861616227
46 0.025615191007074
47 -0.91928783920337
48 0.000001701249904
49 0.006898748193036
50 -0.012230577043142
 Sym=     12.1
 Ene=       0.2228
 Spin= Alpha
 Occup=    0.000000
1 -0.039566386266991
2 0.15337762465933
3 1.05620042286053
4 0.000039497572142
5 0.25244078458742
6 -0.084600907176023
7 0.000093113821375
8 0.48808983618315
9 -0.36524871727208
10 -0.010164990294651
11 0.018570920037100
12 -0.008405929742450
13 0.000003361786351
14 -0.000001929828115
15 -0.004904391596211
16 0.027167469942061
17 -0.16153204722560
18 -0.71174088966110
19 -0.000018774408135
20 0.19895815488359
21 0.001500001015406
22 -0.000073511643226
23 0.34515375966106
24 -0.19718321168628
25 0.009607320999679
26 -0.007674689484810
27 -0.001932631514869
28 0.000000617721537
29 -0.000000843423156
30 -0.014282387858872
31 -0.011847191112425
32 0.023323148116773
33 0.000000473869511
34 -0.005708361283562
35 -0.000038286091673
36 0.063743236298297
37 1.31229537155117
38 -0.000000813486501
39 0.014917596205148
40 0.000150126143796
41 0.001307729065104
42 0.022099068062811
43 0.000000669163531
44 -0.000804780887805
45 0.004296610470677
46 -0.088387498028875
47 -1.71561745589665
48 0.000002969236902
49 0.020917924669173
50 -0.007738192025382
 Sym=     13.1
 Ene=       0.2733
 Spin= Alpha
 Occup=    0.000000
1 0.026958390810487
2 -0.052198160747155
3 -0.82598552349060
4 -0.000023892649030
5 -0.12166298114540
6 0.041843540241026
7 -0.000004643532231
8 -0.79678924926463
9 0.13694848518466
10 0.017585234025965
11 -0.022264987050916
12 0.004679753024951
13 -0.000002942480795
14 0.000001559613372
15 0.020846456922516
16 -0.007421136281331
17 0.009584929865365
18 0.063467267424772
19 -0.000049360284380
20 0.39427638133229
21 0.066981128266789
22 -0.000121982466263
23 1.41249583972080
24 0.23619804075362
25 -0.003396714984872
26 -0.007394434917564
27 0.010791149902436
28 -0.000002611963904
29 -0.000002399990287
30 0.031485742251372
31 0.023200110754685
32 -1.90240608627561
33 -0.000002854612308
34 0.016735159265618
35 0.020758110555994
36 -0.037185833531857
37 1.77341317895315
38 -0.000002028308733
39 0.018909527127296
40 -0.014389079849410
41 -0.073092481977145
42 -0.070567688319465
43 0.000000630984406
44 0.003167800149444
45 0.003939723153362
46 -0.057978201286868
47 1.29545207581472
48 -0.000001509392453
49 -0.017964711194576
50 0.012124315015742
 Sym=     14.1
 Ene=       0.4580
 Spin= Alpha
 Occup=    0.000000
1 0.053063756159367
2 -0.13974672529013
3 -3.78344807434247
4 0.000030756334731
5 0.14245082856576
6 -0.25310218202762
7 -0.000055645128881
8 0.84229921948630
9 -2.78306613964195
10 0.032051776985577
11 0.030737449893352
12 -0.062789226878929
13 -0.000006772900516
14 0.000001505913754
15 0.025053063836826
16 -0.081104918762033
17 -0.065086239568784
18 3.61624117680099
19 0.000039387964410
20 0.018429306419843
21 -0.091210359698513
22 -0.000014278648731
23 0.51765268085341
24 -3.36043467629621
25 -0.056679859454320
26 0.026803680876400
27 0.029876178577920
28 -0.000011289657030
29 -0.000003540299539
30 -0.015596029213226
31 0.27141114368991
32 0.57275427373981
33 -0.000001336214121
34 0.015867479643892
35 -0.004674297401923
36 0.26738985228167
37 0.34164706653349
38 0.000004180239017
39 -0.022394986138037
40 -0.005938220131280
41 -0.14804690976353
42 0.044802772832277
43 -0.000000609700031
44 0.012905196666989
45 -0.008969880779520
46 0.086873024856998
47 -1.11567838153872
48 -0.000003225270406
49 -0.018329985063600
50 -0.001664008881175
 Sym=     15.1
 Ene=       0.5871
 Spin= Alpha
 Occup=    0.000000
1 0.16805820961340
2 0.54213668822494
3 -1.03067620393914
4 0.000014842480689
5 -0.036965696796745
6 0.49331479711728
7 -0.000079522331230
8 0.15172056722079
9 -1.57895323153908
10 -0.075430957415562
11 0.018173211052553