[Molden Format]
[Molpro variables]
_NUMVAR=  685.0000000000000    
_EV2006= 0.3674930886769165E-01
_EV= 0.3674932534394180E-01
_KJOULE= 0.3808798324128737E-03
_KJOULE/MOL= 0.3808798324128737E-03
_CM= 0.4556335267302901E-05
_CM-1= 0.4556335267302901E-05
_KCAL= 0.1593601117815568E-02
_KCAL/MOL= 0.1593601117815568E-02
_KELVIN2006= 0.3166828861084835E-05
_KELVIN= 0.3166814820820034E-05
_HERTZ2006= 0.1519829850815779E-15
_HERTZ= 0.1519829846011223E-15
_HZ2006= 0.1519829850815779E-15
_HZ= 0.1519829846011223E-15
_TOA2006= 0.5291772490000000    
_TOA= 0.5291772090000000    
_TOANG2006= 0.5291772490000000    
_TOANG= 0.5291772090000000    
_TORAD= 0.1745329251994330E-01
_TOCM=  219474.6306700000    
_TODEBYE=  2.541580000000000    
_TOEV2006=  27.21139610000000    
_TOEV=  27.21138390000000    
_TOHERTZ2006=  6579683899900000.    
_TOHERTZ=  6579683920700000.    
_TOHZ2006=  6579683899900000.    
_TOHZ=  6579683920700000.    
_TOK2006=  315773.3000000000    
_TOK=  315774.7000000000    
_TOKCAL=  627.5096000000000    
_TOKELVIN2006=  315773.3000000000    
_TOKELVIN=  315774.7000000000    
_TOKJ=  2625.500000000000    
_TOKJOULE=  2625.500000000000    
_ANG2006=  1.889725988578923    
_ANG=  1.889726131421507    
_ANGSTROM2006=  1.889725988578923    
_ANGSTROM=  1.889726131421507    
_IGNORE_UNDEF=  2.000000000000000    
_STRICTCHECK=  0.000000000000000    
_SEW_ONEEL=  0.000000000000000    
_CPPDONE=FALSE
_DKROLL_DONE=  0.000000000000000    
_FOCKDONE=  0.000000000000000    
_GRADONE=FALSE
_HESSDONE=FALSE
_INTDONE=TRUE
_SCFDONE=FALSE
_MODUL_CUDA=FALSE
_MODUL_SLATER=FALSE
_MODUL_MRCC=FALSE
_MRCC_EXEC=
_FITC_AO_SAVED=FALSE
_FITC_MO_SAVED=FALSE
_SHARED_FS=TRUE
_LSTYP=SEWARD
_INTYP=INTS
_GEOMTYP=ZMAT
_GRADTYP=ALASKA
_DIRECT=FALSE
_SYNCM=  0.000000000000000    
_BASIS=CC-PVTZ
_ZORIENT=  1.000000000000000    
_NELEC=  10.00000000000000    
_SPIN=  0.000000000000000    
!SPIN=  0.000000000000000    
_QSDSTEP=  0.000000000000000    
_QSDIRC=  0.000000000000000    
_PROGRAM=RS2C
_CPUSTEP=  2.630000000000000    
_SYSSTEP= 0.7000000000000001E-01
_WALLSTEP=  3.600000000000000    
!DFMP2=  0.000000000000000    
!DFSCF=  0.000000000000000    
!SCSGRD=  0.000000000000000    
_BASINP=  610.0000000000000    
_CPUTOT=  4.850000000000001    
_DFTEXFAC=  1.000000000000000    
_DMX=-0.7094752854401450E-07
_DMY= 0.1108310023590449E-08
_DMZ= 0.3308687765053966    
_EMP2= -40.32437046765435    
_ENERGR= -40.20863887543756    
_ENERGU= -40.31817580695986    
_ENERGY= -40.32437046765435    
_ENUC=  12.01841693881291    
_GRADEXFAC=  9999.000000000000    
_GRADMETHOD=FALSE
!GRID_FREEZE= -1.000000000000000    
_ITERATIONS=  7.000000000000000    
_LASTNELEC=  8.000000000000000    
_LASTSPIN=  0.000000000000000    
_LASTSYM=  1.000000000000000    
_MPP_PROG=  1.000000000000000    
_NPROC_MPP=  4.000000000000000    
_NPROC_SMP=  1.000000000000000    
_NUMSTEP=  0.000000000000000    
_ORBITAL=  2142.200000000000    
_PI=  3.141592653589793    
!MCACT=  8.000000000000000    
!MCCLOSED=  1.000000000000000    
!MCFREEZE=  0.000000000000000    
!MCMS2=  0.000000000000000    
!MCNEL=  8.000000000000000    
!MCNSTSYM=  1.000000000000000    
!MCSTATE=  1.000000000000000    
!MCSYM=  1.000000000000000    
!MCWEIGHT=  1.000000000000000    
_SEIG_MIN= 0.1379045491040115E-02
_SEWPROP=TRUE
_STATUS=  1.000000000000000    
_SYSTOT= 0.3800000000000000    
_VERSION=  2010001.000000000    
_WALLTOT=  12.50000000000000    
_DATE=30-Aug-19
_LASTORB=MCSCF
_MACHINE=Linux-2.6.34-12-desktop/tt108(x86_64) 64 bit mpp version
_OUTPUT=/home/carlo/qm/combustion/test_diss/newalg/ch4_ch3_h_vrc_test1/dist_1.8/molpro.xml
_PGROUP=C1
_TIME=03:59:40
_LIBMOL=/programs/molpro2010p/bin/../lib/
!SURFREC=  0.000000000000000    
!POLYREC=  0.000000000000000    
!DIPREC=  0.000000000000000    
!VSCFREC=  0.000000000000000    
!VCIREC=  0.000000000000000    
!PVCIREC=  0.000000000000000    
!VMP2REC=  0.000000000000000    
!VMCSCFREC=  0.000000000000000    
!GAREC=  0.000000000000000    
!SCFORB=  21002.00000000000    
!MCORB=  21422.00000000000    
!CIOCC=  9.000000000000000    
!CICORE=  1.000000000000000    
!CICLOS=  1.000000000000000    
!CIISTSYM=  1.000000000000000    
!CIISTMS2=  0.000000000000000    
!CIISTNEL=  8.000000000000000    
!NEWMOL=  0.000000000000000    
!NEWSYM=  0.000000000000000    
_SLFILES=slscratch
_NGSSTO=  9.000000000000000    
_SIN=SIN
_COS=COS
_TAN=TAN
_ACOS=ACOS
_ASIN=ASIN
_ATAN=ATAN
_COSH=COSH
_SINH=SINH
_TANH=TANH
_ABS=ABS
_MOD=MOD
_ERF=ERF
_REFC=REFC
_ERFC=ERFC
_HYPOT=HYPOT
_J0=J0
_J1=J1
_JN=JN
_GAMMA=GAMMA
_LGAMMA=LGAMMA
_Y0=Y0
_Y1=Y1
_YN=YN
_EXP=EXP
_LOG=LOG
_LOG10=LOG10
_SQRT=SQRT
_INT=INT
_NINT=NINT
_MAX=MAX
_MIN=MIN
_COSMO=  0.000000000000000    
_COSMOIT=  0.000000000000000    
_COSMOES=  0.000000000000000    
_COSMOEDS=  0.000000000000000    
_COSMOEC=  0.000000000000000    
_COSMOEDCORR=  0.000000000000000    
_FEPSI=  1.000000000000000    
_SL_IsMM=  0.000000000000000    
_SL_NSYM=  0.000000000000000    
_SL_System_BitSw=  0.000000000000000    
_SL_Unique_atoms=  0.000000000000000    
_SL_GRAD=  0.000000000000000    
_SL_MAXUPD_Hess=  5.000000000000000    
_SL_N_PRINT_COD=  5.000000000000000    
_SL_PRINT_CODES=  0.000000000000000    
_SL_BasType=  0.000000000000000    
_SL_Energy_Pred=  0.000000000000000    
_SL_New_Coords=  0.000000000000000    
_SL_Total_Nuclea=  0.000000000000000    
_SL_Highest_Mltp=  0.000000000000000    
_SL_Ref_Geom=  0.000000000000000    
!LATTICE= -1.000000000000000    
!NEWLATTICE=  0.000000000000000    
!LATGRAD_VAR=FALSE
!SEW_LATTICE=  1.000000000000000    
!LOCAL=  0.000000000000000    
!SAVEDOM= -1.000000000000000    
!RESTDOM= -1.000000000000000    
!SAVEDOM_HF= -1.000000000000000    
!RESTDOM_HF= -1.000000000000000    
!HESSREC=  0.000000000000000    
!FREQREC=  0.000000000000000    
!NMODREC=  0.000000000000000    
!GTASKS=  0.000000000000000    
!HTASKS=  0.000000000000000    
!THRCHG= 0.1000000000000000    
!DEBUG= -1.000000000000000    
!CFIT_CPHF=  0.000000000000000    
!RDOMAUX_CPHF=  3.000000000000000    
!THRAO_CPHF= 0.1000000000000000E-09
!THRMO_CPHF= 0.1000000000000000E-08
!THROV_CPHF= 0.1000000000000000E-11
!THRSW_CPHF= 0.1000000000000000E-09
!THRPROD_CPHF= 0.1000000000000000E-08
!THRAOPR_CPHF= 0.1000000000000000E-11
!CFIT_SCFGRD=  0.000000000000000    
!RDOMAUX_SCFGRD=  5.000000000000000    
!THRAO_SCFGRD= 0.1000000000000000E-09
!THRMO_SCFGRD= 0.1000000000000000E-08
!THROV_SCFGRD= 0.1000000000000000E-11
!THRSW_SCFGRD= 0.1000000000000000E-09
!THRPROD_SCFGRD= 0.1000000000000000E-08
!THRAOPR_SCFGRD= 0.1000000000000000E-11
!LOCFIT_SCF=  0.000000000000000    
!LOCFIT_MP2= -1.000000000000000    
_RIDOM=  0.000000000000000    
!CC2_METHOD=  0.000000000000000    
_BASIS2006=FALSE
_SVDDEL= -1.000000000000000    
_SVDDELA= -1.000000000000000    
_SVDDELP= -1.000000000000000    
_SVDDELF= -1.000000000000000    
_SVDDELS= -1.000000000000000    
_SVDDEL_ABS= -1.000000000000000    
_SVDDELA_ABS= -1.000000000000000    
_SVDDELP_ABS= -1.000000000000000    
_SVDDELF_ABS= -1.000000000000000    
_SVDDELS_ABS= -1.000000000000000    
_MAXBASIS=  0.000000000000000    
!OPT_CONICAL=  0.000000000000000    
!CLEARSP_JGRID=  0.000000000000000    
RCH1=  1.094089621793260    
RCH2=  1.094089713330657    
RCH3=  1.094089863649833    
AHCC1=  115.5225858858409    
AHCC2=  115.5225876061019    
AHCC3=  102.3969392383998    
B1=  139.2055211185866    
B2= -110.3972483675767    
RCH4=  1.800000000000000    
GX1= 0.3108386609218527E-07
GY1= 0.1269780979321067E-07
GZ1= 0.1300494296861702    
GX2=  1.464434242535117    
GY2=  1.390358394372541    
GZ2= 0.5739134521485089    
GX3= 0.4718683247550042    
GY3= -1.963416748778884    
GZ3= 0.5739130458378645    
GX4= -1.936303489435575    
GY4= 0.5730582030943671    
GZ4= 0.5739121772427871    
GX5= 0.5517381717057290E-06
GY5= 0.1110223024625157E-15
GZ5= -3.271457606872502    
CBSEN= -40.32437046765435    
[Atoms] Angs
C     1    6         0.0000000164        0.0000000067        0.0688191942
H     2    1         0.7749452252        0.7357459746        0.3037019188
H     3    1         0.2497019631       -1.0389953952        0.3037017038
H     4    1        -1.0246476763        0.3032493405        0.3037012442
H     5    1         0.0000002920        0.0000000000       -1.7311808058
[GTO]
  1 0
 s   10  1.00
  0.8236000000D+04  0.5309998617D-03
  0.1235000000D+04  0.4107998930D-02
  0.2808000000D+03  0.2108699451D-01
  0.7927000000D+02  0.8185297868D-01
  0.2559000000D+02  0.2348169388D+00
  0.8997000000D+01  0.4344008869D+00
  0.3319000000D+01  0.3461289099D+00
  0.9059000000D+00  0.3937798974D-01
  0.3643000000D+00 -0.8982997660D-02
  0.1285000000D+00  0.2384999379D-02
 s   10  1.00
  0.8236000000D+04 -0.1129999414D-03
  0.1235000000D+04 -0.8779995449D-03
  0.2808000000D+03 -0.4539997647D-02
  0.7927000000D+02 -0.1813299060D-01
  0.2559000000D+02 -0.5575997110D-01
  0.8997000000D+01 -0.1268949342D+00
  0.3319000000D+01 -0.1703519117D+00
  0.9059000000D+00  0.1403819272D+00
  0.3643000000D+00  0.5986836897D+00
  0.1285000000D+00  0.3953887950D+00
 s   10  1.00
  0.8236000000D+04  0.0000000000D+00
  0.1235000000D+04  0.0000000000D+00
  0.2808000000D+03  0.0000000000D+00
  0.7927000000D+02  0.0000000000D+00
  0.2559000000D+02  0.0000000000D+00
  0.8997000000D+01  0.0000000000D+00
  0.3319000000D+01  0.0000000000D+00
  0.9059000000D+00  0.1000000000D+01
  0.3643000000D+00  0.0000000000D+00
  0.1285000000D+00  0.0000000000D+00
 s   10  1.00
  0.8236000000D+04  0.0000000000D+00
  0.1235000000D+04  0.0000000000D+00
  0.2808000000D+03  0.0000000000D+00
  0.7927000000D+02  0.0000000000D+00
  0.2559000000D+02  0.0000000000D+00
  0.8997000000D+01  0.0000000000D+00
  0.3319000000D+01  0.0000000000D+00
  0.9059000000D+00  0.0000000000D+00
  0.3643000000D+00  0.0000000000D+00
  0.1285000000D+00  0.1000000000D+01
 p    5  1.00
  0.1871000000D+02  0.1403099838D-01
  0.4133000000D+01  0.8686598995D-01
  0.1200000000D+01  0.2902159664D+00
  0.3827000000D+00  0.5010079421D+00
  0.1209000000D+00  0.3434059603D+00
 p    5  1.00
  0.1871000000D+02  0.0000000000D+00
  0.4133000000D+01  0.0000000000D+00
  0.1200000000D+01  0.0000000000D+00
  0.3827000000D+00  0.1000000000D+01
  0.1209000000D+00  0.0000000000D+00
 p    5  1.00
  0.1871000000D+02  0.0000000000D+00
  0.4133000000D+01  0.0000000000D+00
  0.1200000000D+01  0.0000000000D+00
  0.3827000000D+00  0.0000000000D+00
  0.1209000000D+00  0.1000000000D+01
 d    1  1.00
  0.1097000000D+01  0.1000000000D+01
 d    1  1.00
  0.3180000000D+00  0.1000000000D+01
 f    1  1.00
  0.7610000000D+00  0.1000000000D+01
  
  2 0
 s    5  1.00
  0.3387000000D+02  0.6067999217D-02
  0.5095000000D+01  0.4530799416D-01
  0.1159000000D+01  0.2028219738D+00
  0.3258000000D+00  0.5039029350D+00
  0.1027000000D+00  0.3834209505D+00
 s    5  1.00
  0.3387000000D+02  0.0000000000D+00
  0.5095000000D+01  0.0000000000D+00
  0.1159000000D+01  0.0000000000D+00
  0.3258000000D+00  0.1000000000D+01
  0.1027000000D+00  0.0000000000D+00
 s    5  1.00
  0.3387000000D+02  0.0000000000D+00
  0.5095000000D+01  0.0000000000D+00
  0.1159000000D+01  0.0000000000D+00
  0.3258000000D+00  0.0000000000D+00
  0.1027000000D+00  0.1000000000D+01
 p    1  1.00
  0.1407000000D+01  0.1000000000D+01
 p    1  1.00
  0.3880000000D+00  0.1000000000D+01
 d    1  1.00
  0.1057000000D+01  0.1000000000D+01
  
  3 0
 s    5  1.00
  0.3387000000D+02  0.6067999217D-02
  0.5095000000D+01  0.4530799416D-01
  0.1159000000D+01  0.2028219738D+00
  0.3258000000D+00  0.5039029350D+00
  0.1027000000D+00  0.3834209505D+00
 s    5  1.00
  0.3387000000D+02  0.0000000000D+00
  0.5095000000D+01  0.0000000000D+00
  0.1159000000D+01  0.0000000000D+00
  0.3258000000D+00  0.1000000000D+01
  0.1027000000D+00  0.0000000000D+00
 s    5  1.00
  0.3387000000D+02  0.0000000000D+00
  0.5095000000D+01  0.0000000000D+00
  0.1159000000D+01  0.0000000000D+00
  0.3258000000D+00  0.0000000000D+00
  0.1027000000D+00  0.1000000000D+01
 p    1  1.00
  0.1407000000D+01  0.1000000000D+01
 p    1  1.00
  0.3880000000D+00  0.1000000000D+01
 d    1  1.00
  0.1057000000D+01  0.1000000000D+01
  
  4 0
 s    5  1.00
  0.3387000000D+02  0.6067999217D-02
  0.5095000000D+01  0.4530799416D-01
  0.1159000000D+01  0.2028219738D+00
  0.3258000000D+00  0.5039029350D+00
  0.1027000000D+00  0.3834209505D+00
 s    5  1.00
  0.3387000000D+02  0.0000000000D+00
  0.5095000000D+01  0.0000000000D+00
  0.1159000000D+01  0.0000000000D+00
  0.3258000000D+00  0.1000000000D+01
  0.1027000000D+00  0.0000000000D+00
 s    5  1.00
  0.3387000000D+02  0.0000000000D+00
  0.5095000000D+01  0.0000000000D+00
  0.1159000000D+01  0.0000000000D+00
  0.3258000000D+00  0.0000000000D+00
  0.1027000000D+00  0.1000000000D+01
 p    1  1.00
  0.1407000000D+01  0.1000000000D+01
 p    1  1.00
  0.3880000000D+00  0.1000000000D+01
 d    1  1.00
  0.1057000000D+01  0.1000000000D+01
  
  5 0
 s    5  1.00
  0.3387000000D+02  0.6067999217D-02
  0.5095000000D+01  0.4530799416D-01
  0.1159000000D+01  0.2028219738D+00
  0.3258000000D+00  0.5039029350D+00
  0.1027000000D+00  0.3834209505D+00
 s    5  1.00
  0.3387000000D+02  0.0000000000D+00
  0.5095000000D+01  0.0000000000D+00
  0.1159000000D+01  0.0000000000D+00
  0.3258000000D+00  0.1000000000D+01
  0.1027000000D+00  0.0000000000D+00
 s    5  1.00
  0.3387000000D+02  0.0000000000D+00
  0.5095000000D+01  0.0000000000D+00
  0.1159000000D+01  0.0000000000D+00
  0.3258000000D+00  0.0000000000D+00
  0.1027000000D+00  0.1000000000D+01
 p    1  1.00
  0.1407000000D+01  0.1000000000D+01
 p    1  1.00
  0.3880000000D+00  0.1000000000D+01
 d    1  1.00
  0.1057000000D+01  0.1000000000D+01
 
 
[MO]
 Sym=      1.1
 Ene=     -11.2350
 Spin= Alpha
 Occup=    2.000000
1 0.99928112168130
2 -0.003266959056969
3 0.001874190607987
4 0.002775906859270
5 -0.000000000357963
6 -0.000000000072634
7 -0.001444199942970
8 0.000000000826909
9 -0.000000000503749
10 0.001470284949679
11 0.000000000504703
12 -0.000000000175620
13 0.000599373417295
14 0.000234934869161
15 0.000234935099533
16 -0.000469869968694
17 0.000000000172322
18 0.000000000395492
19 -0.000000000009059
20 0.000194359338254
21 0.000194360228308
22 -0.000388719566562
23 0.000000000087707
24 0.000000000301398
25 -0.000000000007000
26 -0.000319286484757
27 -0.000373296748044
28 -0.000191465692476
29 0.000428367652364
30 0.000500830110654
31 0.000128438902006
32 0.000000000118163
33 0.000000000031989
34 0.000128439280236
35 0.000000000281409
36 -0.001664148129652
37 -0.000236170314863
38 -0.000196439347383
39 0.000255914130632
40 0.000242969167740
41 0.000092639155028
42 0.000178241116326
43 0.000169225036364
44 0.000006469109964
45 -0.000053565110552
46 -0.000033162080521
47 0.000086727191074
48 -0.000226834699641
49 -0.000069667943411
50 -0.000066143930963
51 -0.001664146687372
52 -0.000236171339684
53 -0.000196439662886
54 0.000082460330915
55 -0.000343112713321
56 0.000092639050068
57 0.000057432619189
58 -0.000238974077577
59 0.000006469191081
60 0.000131863292407
61 -0.000218590581427
62 0.000086727289020
63 0.000103215813591
64 -0.000022448275433
65 0.000093406178780
66 -0.001664145271870
67 -0.000236169935715
68 -0.000196439561780
69 -0.000338374424500
70 0.000100143506683
71 0.000092638861313
72 -0.000235673201430
73 0.000069748461072
74 0.000006468736132
75 -0.000208389201194
76 0.000121661758326
77 0.000086727442868
78 0.000123618950917
79 0.000092116102027
80 -0.000027262158813
81 -0.000830590392709
82 0.000452082109318
83 -0.000015173666450
84 0.000000000019425
85 -0.000000000013839
86 0.000006068676596
87 -0.000000000099445
88 0.000000000036874
89 0.000268481188666
90 -0.000091837059398
91 -0.000091837071771
92 0.000183674131169
93 -0.000000000001515
94 -0.000000000063445
95 0.000000000013342
 Sym=      2.1
 Ene=      -0.9018
 Spin= Alpha
 Occup=    1.982238
1 -0.007197812338116
2 0.78805492469943
3 -0.009963136108648
4 -0.12069607211989
5 0.000000619677861
6 0.000000046999110
7 0.13564762390467
8 -0.000000049535452
9 -0.000000003169248
10 -0.003361055133757
11 -0.000000110009386
12 -0.000000007033880
13 -0.015288230812987
14 0.005470174684191
15 0.005470192152286
16 -0.010940366836477
17 0.000000015196864
18 0.000000015877866
19 0.000000000805805
20 0.008963783326497
21 0.008963804083911
22 -0.017927587410408
23 0.000000020910399
24 0.000000023760052
25 0.000000001039845
26 -0.003845833069137
27 -0.004496390539276
28 -0.003659742972879
29 0.005159724614974
30 0.006032540978762
31 0.002455028192037
32 0.000000001888651
33 -0.000000000039237
34 0.002455032248484
35 0.000000003366319
36 0.39466251915710
37 -0.091996479344571
38 -0.13149579993534
39 -0.005916612280251
40 -0.005617334222244
41 -0.000871352376081
42 -0.000276335458302
43 -0.000262363777937
44 0.002230809415029
45 0.000250820198762
46 0.000168491388514
47 -0.000419311587277
48 0.000915323189109
49 0.000059806095558
50 0.000056781343238
51 0.39466207255038
52 -0.091996391549681
53 -0.13149568222573
54 -0.001906438796981
55 0.007932597174282
56 -0.000871348267453
57 -0.000089033947534
58 0.000370498281138
59 0.002230808548480
60 -0.000497418908197
61 0.000916729410422
62 -0.000419310502226
63 -0.000416494138493
64 0.000019270024555
65 -0.000080183309522
66 0.39466129157447
67 -0.091996245291182
68 -0.13149547652647
69 0.007823037550349
70 -0.002315263777874
71 -0.000871340604125
72 0.000365377492557
73 -0.000108131772234
74 0.002230809443989
75 0.000875560444505
76 -0.000456251839887
77 -0.000419308604618
78 -0.000498823288051
79 -0.000079073687745
80 0.000023402087564
81 0.022081026213922
82 0.001186395966838
83 -0.022428843492087
84 0.000000000587473
85 0.000000000104985
86 0.001636837293873
87 0.000000002263953
88 0.000000000205001
89 0.007214325064099
90 -0.000515427585971
91 -0.000515427528200
92 0.001030855114172
93 0.000000000027743
94 0.000000000644693
95 0.000000000081442
 Sym=      3.1
 Ene=      -0.5647
 Spin= Alpha
 Occup=    1.977130
1 -0.000000002478450
2 0.000000387364420
3 -0.000000006249288
4 -0.000000050103337
5 -0.34197033568094
6 -0.60617904776117
7 -0.000000068470285
8 0.026633968927514
9 0.047211560635687
10 0.000000010090959
11 0.057333036878501
12 0.10162894612632
13 0.000000018647437
14 -0.004950847334055
15 0.004950855084948
16 -0.000000007750893
17 -0.015681089196974
18 -0.003903369138249
19 -0.006919141299204
20 -0.005738015174499
21 0.005738027061485
22 -0.000000011886986
23 -0.018174332881316
24 -0.005613858633512
25 -0.009951167356345
26 -0.000564596838740
27 -0.001000807107867
28 -0.000000001071045
29 -0.000252491648101
30 -0.000447569989898
31 -0.000221138333222
32 0.001009977794883
33 0.001790293625231
34 0.000221139770180
35 -0.000700424546381
36 -0.66991155760605
37 0.090318034696888
38 0.15291820736886
39 0.009571355260257
40 0.007266139937012
41 0.003577752153353
42 0.009108033196790
43 0.004785965697473
44 0.002169341973873
45 -0.001417655310563
46 -0.000157214414965
47 0.001574869725527
48 -0.003104660310281
49 -0.001233323390972
50 -0.001024484473772
51 0.51296310136578
52 -0.069158127849113
53 -0.11709218928944
54 -0.005119544607444
55 0.008175909519957
56 -0.002739545253939
57 -0.008095263377203
58 0.005851319943006
59 -0.001661100580398
60 -0.000733753642147
61 0.001939659601495
62 -0.001205905959348
63 -0.002262387662195
64 0.000526100427878
65 -0.001133440004998
66 0.15694904967699
67 -0.021160011142176
68 -0.035826189454759
69 0.001438033429946
70 -0.005001671302211
71 -0.000838204832628
72 -0.000416227561843
73 -0.009579853639480
74 -0.000508237884666
75 -0.000167273456783
76 0.000536239559987
77 -0.000368966103204
78 -0.001977040026673
79 -0.000259252730868
80 0.000444742271405
81 0.000000027759390
82 -0.000000000904110
83 -0.000000021177629
84 -0.000487801962992
85 -0.000864681263979
86 0.000000001193584
87 -0.001801856433085
88 -0.003193983402254
89 0.000000004263921
90 -0.000035990301361
91 0.000035989888576
92 0.000000000412785
93 -0.000113993419802
94 -0.000462077019289
95 -0.000819080963295
 Sym=      4.1
 Ene=      -0.5647
 Spin= Alpha
 Occup=    1.977130
1 0.000000003154870
2 -0.000000590293869
3 0.000000010274740
4 0.000000070238784
5 0.60617899753312
6 -0.34197031189186
7 0.000000121906810
8 -0.047211539621320
9 0.026633954724334
10 -0.000000017572967
11 -0.10162891529212
12 0.057333016968165
13 -0.000000033675736
14 -0.013580231067422
15 0.013580219260683
16 0.000000011806739
17 0.005716751635595
18 0.006919128541250
19 -0.003903363656448
20 -0.015739451220514
21 0.015739433851844
22 0.000000017368670
23 0.006625698921421
24 0.009951154351493
25 -0.005613853316897
26 0.001000808702472
27 -0.000564591349466
28 0.000000001459398
29 0.000447568979122
30 -0.000252499530620
31 -0.000606585110068
32 -0.001790294753842
33 0.001009978312769
34 0.000606583152081
35 0.000255348377508
36 0.20554449559548
37 -0.027711658905768
38 -0.046918848737867
39 0.000305897466690
40 -0.005644793751752
41 -0.001097737508999
42 0.004081018762131
43 -0.008710342883973
44 -0.000665604404589
45 -0.001309793269008
46 0.001793000381249
47 -0.000483207112240
48 0.001057206582884
49 0.000117635754035
50 0.000589006284138
51 0.47738785633892
52 -0.064361798553258
53 -0.10897150238958
54 0.001215658314791
55 0.009046099256849
56 -0.002549550476804
57 0.005146366151200
58 0.008492955048950
59 -0.001545898844404
60 -0.001719688951884
61 0.002841962873058
62 -0.001122273921174
63 0.000241430599221
64 0.000008680185201
65 -0.001170416171952
66 -0.68293321927797
67 0.092073611610342
68 0.15589060397357
69 -0.011961925931473
70 0.002488532606399
71 0.003647284346750
72 -0.010284818023010
73 0.000813927533349
74 0.002211498819515
75 -0.003330689270016
76 0.001725204891362
77 0.001605484378654
78 0.001378749630115
79 0.001586860832333
80 -0.000385063265558
81 -0.000000041214787
82 0.000000001878528
83 0.000000031793069
84 0.000864681412404
85 -0.000487802056250
86 -0.000000001745468
87 0.003193984668918
88 -0.001801857102409
89 -0.000000006428297
90 -0.000098721239650
91 0.000098721769732
92 -0.000000000530082
93 0.000041558004165
94 0.000819081052715
95 -0.000462077046310
 Sym=      5.1
 Ene=      -0.3758
 Spin= Alpha
 Occup=    1.879231
1 0.000171683452116
2 -0.10872610121499
3 0.004055075929605
4 -0.021502157627517
5 -0.000000209397583
6 -0.000000008233772
7 0.53548049667985
8 -0.000000004745636
9 0.000000005322003
10 0.002219057801111
11 -0.000000009446783
12 0.000000003910616
13 0.002654805197411
14 0.004109272113419
15 0.004109270907094
16 -0.008218543020513
17 -0.000000000069366
18 0.000000003898767
19 0.000000000154754
20 0.011989975643229
21 0.011989969690849
22 -0.023979945334078
23 -0.000000000687998
24 0.000000009091944
25 0.000000000813057
26 -0.000160293199184
27 -0.000187408534404
28 0.002320724415578
29 0.000215056509701
30 0.000251435141901
31 -0.001556789001207
32 -0.000000000615878
33 -0.000000000208407
34 -0.001556789528958
35 -0.000000000045067
36 0.087710910754876
37 -0.009190576899460
38 -0.009705240292276
39 -0.001575751512198
40 -0.001496043024918
41 0.004377203052859
42 -0.000226897642053
43 -0.000215417216293
44 0.011529900387484
45 0.000574580387780
46 0.000519526149571
47 -0.001094106537352
48 0.000612067615300
49 -0.001388561084347
50 -0.001318323418434
51 0.087710917012605
52 -0.009190566975371
53 -0.009705228440957
54 -0.000507738039226
55 0.002112660451596
56 0.004377202741805
57 -0.000073114722017
58 0.000304207649698
59 0.011529898998325
60 0.000074239146609
61 0.001019866956003
62 -0.001094106102611
63 -0.000278507674390
64 -0.000447420332290
65 0.001861691110500
66 0.087710938750226
67 -0.009190576565119
68 -0.009705219399897
69 0.002083483346173
70 -0.000616617326942
71 0.004377202519159
72 0.000299996674863
73 -0.000088787462248
74 0.011529900350928
75 0.000992338466295
76 0.000101765978422
77 -0.001094104444717
78 -0.000333560019276
79 0.001835983178619
80 -0.000543367877922
81 -0.66074884439661
82 0.035713951350335
83 -0.008022815965320
84 0.000000000098066
85 -0.000000000003143
86 -0.002118462837169
87 0.000000001888467
88 -0.000000000392109
89 -0.014375191769479
90 0.000552853464848
91 0.000552853519351
92 -0.001105706984199
93 0.000000000004778
94 0.000000000194233
95 -0.000000000084287
 Sym=      6.1
 Ene=       0.1886
 Spin= Alpha
 Occup=    0.121200
1 -0.009539040617211
2 -0.31640247556308
3 -0.004639970835932
4 0.028536104463469
5 -0.000000298686333
6 -0.000000008186927
7 0.86492107574641
8 0.000000007197257
9 -0.000000004290908
10 0.036325901325287
11 0.000000049207018
12 -0.000000002892580
13 -0.11307462465969
14 0.005097909976929
15 0.005097911093191
16 -0.010195821070120
17 0.000000001575477
18 0.000000008298648
19 0.000000000398082
20 0.020637108595968
21 0.020637118293285
22 -0.041274226889252
23 0.000000007327356
24 0.000000028031279
25 0.000000000775644
26 -0.000574321823715
27 -0.000671479264589
28 0.008980343466794
29 0.000770542054515
30 0.000900883926733
31 -0.006024197771298
32 -0.000000008471242
33 0.000000000041929
34 -0.006024197300531
35 0.000000000580499
36 0.047486067154380
37 -0.025123360100927
38 -0.021199807716936
39 -0.001412370479843
40 -0.001340926501284
41 0.004946848267283
42 0.006360951737007
43 0.006039196388397
44 0.007321970314243
45 -0.000203429834898
46 -0.000234252468993
47 0.000437682303891
48 0.000342658841266
49 -0.001962039909507
50 -0.001862793075900
51 0.047486033500404
52 -0.025123347720402
53 -0.021199803332146
54 -0.000455093508411
55 0.001893609537203
56 0.004946846939109
57 0.002049616729847
58 -0.008528344086312
59 0.007321965740688
60 -0.000483540345692
61 0.000045856752759
62 0.000437683592934
63 -0.000155919702028
64 -0.000632206373164
65 0.002630572181558
66 0.047485971016078
67 -0.025123301789545
68 -0.021199775378135
69 0.001867457362232
70 -0.000552683493190
71 0.004946844965320
72 -0.008410561565204
73 0.002489145415553
74 0.007321954798743
75 0.000030445536200
76 -0.000468131301630
77 0.000437685765430
78 -0.000186739954180
79 0.002594243504437
80 -0.000767778788349
81 0.96386646868038
82 0.023018643902634
83 -0.15623767249925
84 0.000000000722489
85 -0.000000000023846
86 -0.002414737316134
87 -0.000000001075811
88 -0.000000000244948
89 -0.010414954917576
90 0.000727598392709
91 0.000727598319241
92 -0.001455196711950
93 -0.000000000008886
94 -0.000000000454847
95 -0.000000000078869
 Sym=      7.1
 Ene=       0.6356
 Spin= Alpha
 Occup=    0.021631
1 -0.096930575608450
2 -1.46966945694848
3 -0.22930019453377
4 0.63290783092089
5 0.000010289498342
6 0.000000711400772
7 -0.51318009495962
8 0.000000037773704
9 -0.000000002665397
10 0.043902966291546
11 -0.000003479087567
12 -0.000000234581667
13 0.18228253376964
14 -0.011797743693906
15 -0.011797403624672
16 0.023595147318578
17 0.000000269238815
18 0.000000163309109
19 0.000000011445774
20 -0.001429308748192
21 -0.001428322239023
22 0.002857630987214
23 0.000000778747923
24 0.000000411527156
25 0.000000028665869
26 0.006337029754974
27 0.007408938095897
28 0.005589536713963
29 -0.008501919665718
30 -0.009940126374362
31 -0.003749607154163
32 -0.000000097918818
33 -0.000000007159746
34 -0.003749543278928
35 0.000000050785488
36 0.80353316267751
37 -0.004501688495261
38 -0.24511971085915
39 0.017640269372337
40 0.016747963489724
41 0.004072897322096
42 -0.007158615280205
43 -0.006796416474229
44 0.006264074488819
45 -0.003733830601609
46 -0.002381960889803
47 0.006115791491411
48 -0.015029791271587
49 -0.003635542349183
50 -0.003451630499322
51 0.80353697503748
52 -0.004500606529029
53 -0.24512049755613
54 0.005684061927682
55 -0.023651049734780
56 0.004072924896136
57 -0.002306814432622
58 0.009598040703234
59 0.006263986969237
60 0.008552453884568
61 -0.014668281591687
62 0.006115827707118
63 0.006838968933214
64 -0.001171457055863
65 0.004874298534541
66 0.80354400457882
67 -0.004498634123099
68 -0.24512194186327
69 -0.023324703704754
70 0.006903054498105
71 0.004072972223195
72 0.009466097857570
73 -0.002801583869406
74 0.006263831450176
75 -0.013992452073546
76 0.007876557271180
77 0.006115894802366
78 0.008190925713616
79 0.004807017823001
80 -0.001422665176777
81 0.004134942149147
82 -0.002892374831955
83 -0.035102036489149
84 0.000000006140529
85 0.000000000575457
86 0.001470697132128
87 -0.000000094519343
88 -0.000000006899599
89 0.008746277545156
90 -0.000342666685507
91 -0.000342675309794
92 0.000685341995301
93 -0.000000006684836
94 -0.000000020465851
95 -0.000000001474345
 Sym=      8.1
 Ene=       0.7193
 Spin= Alpha
 Occup=    0.020720
1 -0.000000526480183
2 -0.000007962374561
3 -0.000001291779388
4 0.000003471715328
5 -1.34242073786945
6 0.80781528604616
7 -0.000003267955147
8 0.002935614372714
9 -0.001766539763121
10 0.000000243312921
11 0.45951947909121
12 -0.27652050478261
13 0.000001149004553
14 0.042482143003331
15 -0.042482253899539
16 0.000000110896208
17 -0.016338389234988
18 -0.023260518469821
19 0.013997254903402
20 0.12155573880254
21 -0.12155572111890
22 -0.000000017683643
23 -0.046749590078619
24 -0.053223066124282
25 0.032027528387641
26 -0.006838563850578
27 0.004115226755573
28 0.000000035054636
29 -0.003058349926109
30 0.001840322099702
31 0.008301309461880
32 0.012233246109128
33 -0.007361478160674
34 -0.008301356492609
35 -0.003192640465743
36 0.26075957437395
37 0.073715162994353
38 -0.054388837641678
39 0.008019429935493
40 0.007455568035072
41 0.002323165430300
42 -0.004565686238724
43 -0.027662993255025
44 -0.005954649867108
45 -0.003058681850635
46 0.000524555977704
47 0.002534125872931
48 -0.004413110676931
49 0.000589897890467
50 -0.003018100513481
51 0.68676009139379
52 0.19414488956261
53 -0.14324269468052
54 0.006820940789776
55 -0.028018520591789
56 0.006118514863277
57 -0.001598153937016
58 0.060176623857032
59 -0.015682924133763
60 0.005300682393626
61 -0.011974797657176
62 0.006674115263550
63 0.006612754401002
64 0.000849782744488
65 0.004674203131012
66 -0.94750682433632
67 -0.26786001279707
68 0.19762758445933
69 0.038141242696740
70 -0.011319270234225
71 -0.008441585417386
72 -0.079153138084673
73 0.018826724307467
74 0.021637651500782
75 0.016296346071570
76 -0.007088206458329
77 -0.009208139613241
78 -0.009329394717286
79 -0.005941787382354