 Entering Gaussian System, Link 0=g09
 Input=run.inp
 Output=run.out
 Initial command:
 /soft/gaussian/09-e.01/g09/l1.exe "/blues/gpfs/home/elliott/Packages/PACC/moldriver/thermodriver/rundir/SPC/H2O2/MHAJPDPJQMAIIY/0/1/UHFFFAOYSA-N/ezvlpJR/RUN/OPTI/D00/Gau-7737.inp" -scrdir="/blues/gpfs/home/elliott/Packages/PACC/moldriver/thermodriver/rundir/SPC/H2O2/MHAJPDPJQMAIIY/0/1/UHFFFAOYSA-N/ezvlpJR/RUN/OPTI/D00/"
 Entering Link 1 = /soft/gaussian/09-e.01/g09/l1.exe PID=      7738.
  
 Copyright (c) 1988,1990,1992,1993,1995,1998,2003,2009,2015,
            Gaussian, Inc.  All Rights Reserved.
  
 This is part of the Gaussian(R) 09 program.  It is based on
 the Gaussian(R) 03 system (copyright 2003, Gaussian, Inc.),
 the Gaussian(R) 98 system (copyright 1998, Gaussian, Inc.),
 the Gaussian(R) 94 system (copyright 1995, Gaussian, Inc.),
 the Gaussian 92(TM) system (copyright 1992, Gaussian, Inc.),
 the Gaussian 90(TM) system (copyright 1990, Gaussian, Inc.),
 the Gaussian 88(TM) system (copyright 1988, Gaussian, Inc.),
 the Gaussian 86(TM) system (copyright 1986, Carnegie Mellon
 University), and the Gaussian 82(TM) system (copyright 1983,
 Carnegie Mellon University). Gaussian is a federally registered
 trademark of Gaussian, Inc.
  
 This software contains proprietary and confidential information,
 including trade secrets, belonging to Gaussian, Inc.
  
 This software is provided under written license and may be
 used, copied, transmitted, or stored only in accord with that
 written license.
  
 The following legend is applicable only to US Government
 contracts under FAR:
  
                    RESTRICTED RIGHTS LEGEND
  
 Use, reproduction and disclosure by the US Government is
 subject to restrictions as set forth in subparagraphs (a)
 and (c) of the Commercial Computer Software - Restricted
 Rights clause in FAR 52.227-19.
  
 Gaussian, Inc.
 340 Quinnipiac St., Bldg. 40, Wallingford CT 06492
  
  
 ---------------------------------------------------------------
 Warning -- This program may not be used in any manner that
 competes with the business of Gaussian, Inc. or will provide
 assistance to any competitor of Gaussian, Inc.  The licensee
 of this program is prohibited from giving any competitor of
 Gaussian, Inc. access to this program.  By using this program,
 the user acknowledges that Gaussian, Inc. is engaged in the
 business of creating and licensing software in the field of
 computational chemistry and represents and warrants to the
 licensee that it is not a competitor of Gaussian, Inc. and that
 it will not use this program in any manner prohibited above.
 ---------------------------------------------------------------
  

 Cite this work as:
 Gaussian 09, Revision E.01,
 M. J. Frisch, G. W. Trucks, H. B. Schlegel, G. E. Scuseria, 
 M. A. Robb, J. R. Cheeseman, G. Scalmani, V. Barone, B. Mennucci, 
 G. A. Petersson, H. Nakatsuji, M. Caricato, X. Li, H. P. Hratchian, 
 A. F. Izmaylov, J. Bloino, G. Zheng, J. L. Sonnenberg, M. Hada, 
 M. Ehara, K. Toyota, R. Fukuda, J. Hasegawa, M. Ishida, T. Nakajima, 
 Y. Honda, O. Kitao, H. Nakai, T. Vreven, J. A. Montgomery, Jr., 
 J. E. Peralta, F. Ogliaro, M. Bearpark, J. J. Heyd, E. Brothers, 
 K. N. Kudin, V. N. Staroverov, T. Keith, R. Kobayashi, J. Normand, 
 K. Raghavachari, A. Rendell, J. C. Burant, S. S. Iyengar, J. Tomasi, 
 M. Cossi, N. Rega, J. M. Millam, M. Klene, J. E. Knox, J. B. Cross, 
 V. Bakken, C. Adamo, J. Jaramillo, R. Gomperts, R. E. Stratmann, 
 O. Yazyev, A. J. Austin, R. Cammi, C. Pomelli, J. W. Ochterski, 
 R. L. Martin, K. Morokuma, V. G. Zakrzewski, G. A. Voth, 
 P. Salvador, J. J. Dannenberg, S. Dapprich, A. D. Daniels, 
 O. Farkas, J. B. Foresman, J. V. Ortiz, J. Cioslowski, 
 and D. J. Fox, Gaussian, Inc., Wallingford CT, 2013.
 
 ******************************************
 Gaussian 09:  ES64L-G09RevE.01 30-Nov-2015
                10-Sep-2019 
 ******************************************
 %mem=20GB
 %NProcShared=10
 Will use up to   10 processors via shared memory.
 -----------------------------------------------------
 #P b3lyp/6-31g* # SCF=(xqc) # POpt=() # int=ultrafine
 -----------------------------------------------------
 1/10=7,14=-1,26=4,38=1/1,3;
 2/12=2,17=6,18=5,29=3,40=1/2;
 3/5=1,6=6,7=1,11=2,16=1,25=1,30=1,71=1,74=-5,75=-5/1,2,3;
 4//1;
 5/5=2,8=3,13=1,38=5/2,8;
 6/7=2,8=2,9=2,10=2,28=1/1;
 7/29=1/1,2,3,16;
 1/10=7,14=-1,26=4/3(2);
 2/29=3/2;
 99//99;
 2/29=3/2;
 3/5=1,6=6,7=1,11=2,16=1,25=1,30=1,71=1,74=-5,75=-5/1,2,3;
 4/5=5,16=3,69=1/1;
 5/5=2,8=3,13=1,38=5/2,8;
 7//1,2,3,16;
 1/14=-1,26=4/3(-5);
 2/29=3/2;
 6/7=2,8=2,9=2,10=2,19=2,28=1/1;
 99/9=1/99;
 Leave Link    1 at Tue Sep 10 12:24:52 2019, MaxMem=  2684354560 cpu:         0.9
 (Enter /soft/gaussian/09-e.01/g09/l101.exe)
 --------
 comment:
 --------
 Symbolic Z-matrix:
 Charge =  0 Multiplicity = 1
 O
 O                    1    R1
 H                    1    R2       2    A2
 H                    2    R3       1    A3       3    D3       0
       Variables:
  R1                    1.45405                  
  R2                    0.97607                  
  A2                   96.7729                   
  R3                    0.97607                  
  A3                   96.7728                   
  D3                  129.368                    
 
 NAtoms=      4 NQM=        4 NQMF=       0 NMMI=      0 NMMIF=      0
                NMic=       0 NMicF=      0.
                    Isotopes and Nuclear Properties:
 (Nuclear quadrupole moments (NQMom) in fm**2, nuclear magnetic moments (NMagM)
  in nuclear magnetons)

  Atom         1           2           3           4
 IAtWgt=          16          16           1           1
 AtmWgt=  15.9949146  15.9949146   1.0078250   1.0078250
 NucSpn=           0           0           1           1
 AtZEff=   0.0000000   0.0000000   0.0000000   0.0000000
 NQMom=    0.0000000   0.0000000   0.0000000   0.0000000
 NMagM=    0.0000000   0.0000000   2.7928460   2.7928460
 AtZNuc=   8.0000000   8.0000000   1.0000000   1.0000000
 Leave Link  101 at Tue Sep 10 12:24:52 2019, MaxMem=  2684354560 cpu:         0.7
 (Enter /soft/gaussian/09-e.01/g09/l103.exe)

 GradGradGradGradGradGradGradGradGradGradGradGradGradGradGradGradGradGrad
 Berny optimization.
 Initialization pass.
                       ----------------------------
                       !    Initial Parameters    !
                       ! (Angstroms and Degrees)  !
 ----------------------                            ----------------------
 !      Name          Value   Derivative information (Atomic Units)     !
 ------------------------------------------------------------------------
 !       R1          1.4541   estimate D2E/DX2                          !
 !       R2          0.9761   estimate D2E/DX2                          !
 !       A2         96.7729   estimate D2E/DX2                          !
 !       R3          0.9761   estimate D2E/DX2                          !
 !       A3         96.7728   estimate D2E/DX2                          !
 !       D3        129.368    estimate D2E/DX2                          !
 ------------------------------------------------------------------------
 Trust Radius=3.00D-01 FncErr=1.00D-07 GrdErr=1.00D-06
 Number of steps in this run=     20 maximum allowed number of steps=    100.
 GradGradGradGradGradGradGradGradGradGradGradGradGradGradGradGradGradGrad

 Leave Link  103 at Tue Sep 10 12:24:52 2019, MaxMem=  2684354560 cpu:         0.2
 (Enter /soft/gaussian/09-e.01/g09/l202.exe)
 ---------------------------------------------------------------------------------------------------
                            Z-MATRIX (ANGSTROMS AND DEGREES)
   CD    Cent   Atom    N1       Length/X        N2       Alpha/Y        N3        Beta/Z          J
 ---------------------------------------------------------------------------------------------------
      1      1  O 
      2      2  O        1   1.454052(     1)
      3      3  H        1   0.976073(     2)      2   96.773(     4)
      4      4  H        2   0.976073(     3)      1   96.773(     5)      3  129.368(     6)      0
 ---------------------------------------------------------------------------------------------------
                         Z-Matrix orientation:                         
 ---------------------------------------------------------------------
 Center     Atomic      Atomic             Coordinates (Angstroms)
 Number     Number       Type             X           Y           Z
 ---------------------------------------------------------------------
      1          8           0        0.000000    0.000000    0.000000
      2          8           0        0.000000    0.000000    1.454052
      3          1           0        0.969261    0.000000   -0.115112
      4          1           0       -0.614801    0.749324    1.569163
 ---------------------------------------------------------------------
                    Distance matrix (angstroms):
                    1          2          3          4
     1  O    0.000000
     2  O    1.454052   0.000000
     3  H    0.976073   1.844382   0.000000
     4  H    1.844381   0.976073   2.430540   0.000000
 Stoichiometry    H2O2
 Framework group  C1[X(H2O2)]
 Deg. of freedom     6
 Full point group                 C1      NOp   1
 Largest Abelian subgroup         C1      NOp   1
 Largest concise Abelian subgroup C1      NOp   1
                         Standard orientation:                         
 ---------------------------------------------------------------------
 Center     Atomic      Atomic             Coordinates (Angstroms)
 Number     Number       Type             X           Y           Z
 ---------------------------------------------------------------------
      1          8           0        0.716537    0.123048   -0.046052
      2          8           0       -0.716538   -0.123048   -0.046052
      3          1           0        0.978280   -0.721006    0.368414
      4          1           0       -0.978279    0.721007    0.368414
 ---------------------------------------------------------------------
 Rotational constants (GHZ):    290.0483929     26.8894419     25.4142717
 Leave Link  202 at Tue Sep 10 12:24:52 2019, MaxMem=  2684354560 cpu:         0.2
 (Enter /soft/gaussian/09-e.01/g09/l301.exe)
 Standard basis: 6-31G(d) (6D, 7F)
 Ernie: Thresh=  0.10000D-02 Tol=  0.10000D-05 Strict=F.
 There are    34 symmetry adapted cartesian basis functions of A   symmetry.
 There are    34 symmetry adapted basis functions of A   symmetry.
    34 basis functions,    64 primitive gaussians,    34 cartesian basis functions
     9 alpha electrons        9 beta electrons
       nuclear repulsion energy        36.7744163757 Hartrees.
 IExCor=  402 DFT=T Ex+Corr=B3LYP ExCW=0 ScaHFX=  0.200000
 ScaDFX=  0.800000  0.720000  1.000000  0.810000 ScalE2=  1.000000  1.000000
 IRadAn=      5 IRanWt=     -1 IRanGd=            0 ICorTp=0 IEmpDi=  4
 NAtoms=    4 NActive=    4 NUniq=    4 SFac= 1.00D+00 NAtFMM=   60 NAOKFM=F Big=F
 Integral buffers will be    131072 words long.
 Raffenetti 2 integral format.
 Two-electron integral symmetry is turned on.
 Leave Link  301 at Tue Sep 10 12:24:52 2019, MaxMem=  2684354560 cpu:         0.6
 (Enter /soft/gaussian/09-e.01/g09/l302.exe)
 NPDir=0 NMtPBC=     1 NCelOv=     1 NCel=       1 NClECP=     1 NCelD=      1
         NCelK=      1 NCelE2=     1 NClLst=     1 CellRange=     0.0.
 One-electron integrals computed using PRISM.
 NBasis=    34 RedAO= T EigKep=  1.11D-02  NBF=    34
 NBsUse=    34 1.00D-06 EigRej= -1.00D+00 NBFU=    34
 Precomputing XC quadrature grid using
 IXCGrd= 4 IRadAn=           5 IRanWt=          -1 IRanGd=           0 AccXCQ= 0.00D+00.
 Generated NRdTot=       0 NPtTot=           0 NUsed=           0 NTot=          32
 NSgBfM=    34    34    34    34    34 MxSgAt=     4 MxSgA2=     4.
 Leave Link  302 at Tue Sep 10 12:24:52 2019, MaxMem=  2684354560 cpu:         1.8
 (Enter /soft/gaussian/09-e.01/g09/l303.exe)
 DipDrv:  MaxL=1.
 Leave Link  303 at Tue Sep 10 12:24:53 2019, MaxMem=  2684354560 cpu:         0.2
 (Enter /soft/gaussian/09-e.01/g09/l401.exe)
 ExpMin= 1.61D-01 ExpMax= 5.48D+03 ExpMxC= 8.25D+02 IAcc=3 IRadAn=         5 AccDes= 0.00D+00
 Harris functional with IExCor=  402 and IRadAn=       5 diagonalized for initial guess.
 HarFok:  IExCor=  402 AccDes= 0.00D+00 IRadAn=         5 IDoV= 1 UseB2=F ITyADJ=14
 ICtDFT=  3500011 ScaDFX=  1.000000  1.000000  1.000000  1.000000
 FoFCou: FMM=F IPFlag=           0 FMFlag=      100000 FMFlg1=           0
         NFxFlg=           0 DoJE=T BraDBF=F KetDBF=T FulRan=T
         wScrn=  0.000000 ICntrl=     500 IOpCl=  0 I1Cent=   200000004 NGrid=           0
         NMat0=    1 NMatS0=      1 NMatT0=    0 NMatD0=    1 NMtDS0=    0 NMtDT0=    0
 Petite list used in FoFCou.
 Harris En= -151.552095218915    
 JPrj=0 DoOrth=F DoCkMO=F.
 Leave Link  401 at Tue Sep 10 12:24:53 2019, MaxMem=  2684354560 cpu:         2.1
 (Enter /soft/gaussian/09-e.01/g09/l502.exe)
 Closed shell SCF:
 Using DIIS extrapolation, IDIIS=  1040.
 Integral symmetry usage will be decided dynamically.
 Keep R1 ints in memory in canonical form, NReq=1049956.
 IVT=       10008 IEndB=       10008 NGot=  2684354560 MDV=  2684167243
 LenX=  2684167243 LenY=  2684165646
 Requested convergence on RMS density matrix=1.00D-08 within  64 cycles.
 Requested convergence on MAX density matrix=1.00D-06.
 Requested convergence on             energy=1.00D-06.
 No special actions if energy rises.
 FoFCou: FMM=F IPFlag=           0 FMFlag=           0 FMFlg1=           0
         NFxFlg=           0 DoJE=F BraDBF=F KetDBF=F FulRan=T
         wScrn=  0.000000 ICntrl=     600 IOpCl=  0 I1Cent=           0 NGrid=           0
         NMat0=    1 NMatS0=    595 NMatT0=    0 NMatD0=    1 NMtDS0=    0 NMtDT0=    0
 Symmetry not used in FoFCou.
 Integral accuracy reduced to 1.0D-05 until final iterations.

 Cycle   1  Pass 0  IDiag  1:
 E= -151.498279253622    
 DIIS: error= 2.72D-02 at cycle   1 NSaved=   1.
 NSaved= 1 IEnMin= 1 EnMin= -151.498279253622     IErMin= 1 ErrMin= 2.72D-02
 ErrMax= 2.72D-02  0.00D+00 EMaxC= 1.00D-01 BMatC= 4.44D-02 BMatP= 4.44D-02
 IDIUse=3 WtCom= 7.28D-01 WtEn= 2.72D-01
 Coeff-Com:  0.100D+01
 Coeff-En:   0.100D+01
 Coeff:      0.100D+01
 Gap=     0.299 Goal=   None    Shift=    0.000
 GapD=    0.299 DampG=1.000 DampE=0.500 DampFc=0.5000 IDamp=-1.
 Damping current iteration by 5.00D-01
 RMSDP=9.38D-03 MaxDP=8.32D-02              OVMax= 9.54D-02

 Cycle   2  Pass 0  IDiag  1:
 E= -151.514435508652     Delta-E=       -0.016156255030 Rises=F Damp=T
 DIIS: error= 4.97D-03 at cycle   2 NSaved=   2.
 NSaved= 2 IEnMin= 2 EnMin= -151.514435508652     IErMin= 2 ErrMin= 4.97D-03
 ErrMax= 4.97D-03  0.00D+00 EMaxC= 1.00D-01 BMatC= 2.33D-03 BMatP= 4.44D-02
 IDIUse=3 WtCom= 9.50D-01 WtEn= 4.97D-02
 Coeff-Com:  0.305D-01 0.969D+00
 Coeff-En:   0.348D-01 0.965D+00
 Coeff:      0.307D-01 0.969D+00
 Gap=     0.329 Goal=   None    Shift=    0.000
 RMSDP=1.00D-03 MaxDP=6.44D-03 DE=-1.62D-02 OVMax= 4.49D-02

 Cycle   3  Pass 0  IDiag  1:
 E= -151.532259728850     Delta-E=       -0.017824220198 Rises=F Damp=F
 DIIS: error= 2.55D-03 at cycle   3 NSaved=   3.
 NSaved= 3 IEnMin= 3 EnMin= -151.532259728850     IErMin= 3 ErrMin= 2.55D-03
 ErrMax= 2.55D-03  0.00D+00 EMaxC= 1.00D-01 BMatC= 3.72D-04 BMatP= 2.33D-03
 IDIUse=3 WtCom= 9.75D-01 WtEn= 2.55D-02
 Coeff-Com: -0.180D-01 0.264D+00 0.754D+00
 Coeff-En:   0.000D+00 0.000D+00 0.100D+01
 Coeff:     -0.175D-01 0.257D+00 0.761D+00
 Gap=     0.290 Goal=   None    Shift=    0.000
 RMSDP=4.30D-04 MaxDP=2.38D-03 DE=-1.78D-02 OVMax= 5.56D-03

 Cycle   4  Pass 0  IDiag  1:
 E= -151.532527348023     Delta-E=       -0.000267619173 Rises=F Damp=F
 DIIS: error= 5.44D-04 at cycle   4 NSaved=   4.
 NSaved= 4 IEnMin= 4 EnMin= -151.532527348023     IErMin= 4 ErrMin= 5.44D-04
 ErrMax= 5.44D-04  0.00D+00 EMaxC= 1.00D-01 BMatC= 1.61D-05 BMatP= 3.72D-04
 IDIUse=3 WtCom= 9.95D-01 WtEn= 5.44D-03
 Coeff-Com:  0.100D-02 0.830D-03 0.170D+00 0.829D+00
 Coeff-En:   0.000D+00 0.000D+00 0.000D+00 0.100D+01
 Coeff:      0.995D-03 0.825D-03 0.169D+00 0.830D+00
 Gap=     0.290 Goal=   None    Shift=    0.000
 RMSDP=7.66D-05 MaxDP=4.21D-04 DE=-2.68D-04 OVMax= 9.45D-04

 Cycle   5  Pass 0  IDiag  1:
 E= -151.532539383242     Delta-E=       -0.000012035218 Rises=F Damp=F
 DIIS: error= 2.11D-05 at cycle   5 NSaved=   5.
 NSaved= 5 IEnMin= 5 EnMin= -151.532539383242     IErMin= 5 ErrMin= 2.11D-05
 ErrMax= 2.11D-05  0.00D+00 EMaxC= 1.00D-01 BMatC= 3.75D-08 BMatP= 1.61D-05
 IDIUse=1 WtCom= 1.00D+00 WtEn= 0.00D+00
 Coeff-Com:  0.425D-03-0.147D-02 0.310D-01 0.169D+00 0.801D+00
 Coeff:      0.425D-03-0.147D-02 0.310D-01 0.169D+00 0.801D+00
 Gap=     0.290 Goal=   None    Shift=    0.000
 RMSDP=4.34D-06 MaxDP=2.31D-05 DE=-1.20D-05 OVMax= 4.88D-05

 Initial convergence to 1.0D-05 achieved.  Increase integral accuracy.
 Cycle   6  Pass 1  IDiag  1:
 E= -151.532538461962     Delta-E=        0.000000921279 Rises=F Damp=F
 DIIS: error= 3.16D-06 at cycle   1 NSaved=   1.
 NSaved= 1 IEnMin= 1 EnMin= -151.532538461962     IErMin= 1 ErrMin= 3.16D-06
 ErrMax= 3.16D-06  0.00D+00 EMaxC= 1.00D-01 BMatC= 5.95D-10 BMatP= 5.95D-10
 IDIUse=1 WtCom= 1.00D+00 WtEn= 0.00D+00
 Coeff-Com:  0.100D+01
 Coeff:      0.100D+01
 Gap=     0.290 Goal=   None    Shift=    0.000
 RMSDP=4.34D-06 MaxDP=2.31D-05 DE= 9.21D-07 OVMax= 9.95D-06

 Cycle   7  Pass 1  IDiag  1:
 E= -151.532538462236     Delta-E=       -0.000000000274 Rises=F Damp=F
 DIIS: error= 2.63D-06 at cycle   2 NSaved=   2.
 NSaved= 2 IEnMin= 2 EnMin= -151.532538462236     IErMin= 2 ErrMin= 2.63D-06
 ErrMax= 2.63D-06  0.00D+00 EMaxC= 1.00D-01 BMatC= 3.13D-10 BMatP= 5.95D-10
 IDIUse=1 WtCom= 1.00D+00 WtEn= 0.00D+00
 Coeff-Com:  0.411D+00 0.589D+00
 Coeff:      0.411D+00 0.589D+00
 Gap=     0.290 Goal=   None    Shift=    0.000
 RMSDP=4.68D-07 MaxDP=4.09D-06 DE=-2.74D-10 OVMax= 4.72D-06

 Cycle   8  Pass 1  IDiag  1:
 E= -151.532538462458     Delta-E=       -0.000000000222 Rises=F Damp=F
 DIIS: error= 7.24D-07 at cycle   3 NSaved=   3.
 NSaved= 3 IEnMin= 3 EnMin= -151.532538462458     IErMin= 3 ErrMin= 7.24D-07
 ErrMax= 7.24D-07  0.00D+00 EMaxC= 1.00D-01 BMatC= 2.36D-11 BMatP= 3.13D-10
 IDIUse=1 WtCom= 1.00D+00 WtEn= 0.00D+00
 Coeff-Com:  0.843D-01 0.250D+00 0.666D+00
 Coeff:      0.843D-01 0.250D+00 0.666D+00
 Gap=     0.290 Goal=   None    Shift=    0.000
 RMSDP=9.97D-08 MaxDP=1.01D-06 DE=-2.22D-10 OVMax= 9.26D-07

 Cycle   9  Pass 1  IDiag  1:
 E= -151.532538462475     Delta-E=       -0.000000000017 Rises=F Damp=F
 DIIS: error= 7.42D-08 at cycle   4 NSaved=   4.
 NSaved= 4 IEnMin= 4 EnMin= -151.532538462475     IErMin= 4 ErrMin= 7.42D-08
 ErrMax= 7.42D-08  0.00D+00 EMaxC= 1.00D-01 BMatC= 2.27D-13 BMatP= 2.36D-11
 IDIUse=1 WtCom= 1.00D+00 WtEn= 0.00D+00
 Coeff-Com: -0.114D-01 0.130D-01 0.107D+00 0.891D+00
 Coeff:     -0.114D-01 0.130D-01 0.107D+00 0.891D+00
 Gap=     0.290 Goal=   None    Shift=    0.000
 RMSDP=1.28D-08 MaxDP=7.57D-08 DE=-1.69D-11 OVMax= 1.53D-07

 Cycle  10  Pass 1  IDiag  1:
 E= -151.532538462475     Delta-E=       -0.000000000000 Rises=F Damp=F
 DIIS: error= 9.49D-09 at cycle   5 NSaved=   5.
 NSaved= 5 IEnMin= 5 EnMin= -151.532538462475     IErMin= 5 ErrMin= 9.49D-09
 ErrMax= 9.49D-09  0.00D+00 EMaxC= 1.00D-01 BMatC= 6.00D-15 BMatP= 2.27D-13
 IDIUse=1 WtCom= 1.00D+00 WtEn= 0.00D+00
 Coeff-Com: -0.426D-02 0.356D-02 0.338D-01 0.306D+00 0.661D+00
 Coeff:     -0.426D-02 0.356D-02 0.338D-01 0.306D+00 0.661D+00
 Gap=     0.290 Goal=   None    Shift=    0.000
 RMSDP=2.60D-09 MaxDP=3.00D-08 DE=-2.84D-13 OVMax= 3.53D-08

 SCF Done:  E(RB3LYP) =  -151.532538462     A.U. after   10 cycles
            NFock= 10  Conv=0.26D-08     -V/T= 2.0079
 KE= 1.503382705829D+02 PE=-4.317430215120D+02 EE= 9.309779609092D+01
 Leave Link  502 at Tue Sep 10 12:24:53 2019, MaxMem=  2684354560 cpu:         4.4
 (Enter /soft/gaussian/09-e.01/g09/l508.exe)
 QCSCF skips out because SCF is already converged.
 Leave Link  508 at Tue Sep 10 12:24:53 2019, MaxMem=  2684354560 cpu:         0.0
 (Enter /soft/gaussian/09-e.01/g09/l601.exe)
 Copying SCF densities to generalized density rwf, IOpCl= 0 IROHF=0.

 **********************************************************************

            Population analysis using the SCF density.

 **********************************************************************

 Orbital symmetries:
       Occupied  (A) (A) (A) (A) (A) (A) (A) (A) (A)
       Virtual   (A) (A) (A) (A) (A) (A) (A) (A) (A) (A) (A) (A)
                 (A) (A) (A) (A) (A) (A) (A) (A) (A) (A) (A) (A)
                 (A)
 The electronic state is 1-A.
 Alpha  occ. eigenvalues --  -19.20243 -19.20235  -1.11359  -0.89100  -0.51083
 Alpha  occ. eigenvalues --   -0.49896  -0.41147  -0.32956  -0.26161
 Alpha virt. eigenvalues --    0.02862   0.06717   0.11475   0.77876   0.77976
 Alpha virt. eigenvalues --    0.81172   0.84031   0.91385   0.95513   0.98311
 Alpha virt. eigenvalues --    1.04800   1.18414   1.32926   1.49911   1.50867
 Alpha virt. eigenvalues --    1.71800   1.76966   1.96744   2.26300   2.33134
 Alpha virt. eigenvalues --    2.48296   2.50104   2.94642   3.43295   3.64254
          Condensed to atoms (all electrons):
               1          2          3          4
     1  O    8.144584   0.075153   0.224853  -0.024995
     2  O    0.075153   8.144584  -0.024995   0.224853
     3  H    0.224853  -0.024995   0.378064   0.002482
     4  H   -0.024995   0.224853   0.002482   0.378064
 Mulliken charges:
               1
     1  O   -0.419596
     2  O   -0.419596
     3  H    0.419596
     4  H    0.419596
 Sum of Mulliken charges =   0.00000
 Mulliken charges with hydrogens summed into heavy atoms:
               1
     1  O   -0.000000
     2  O    0.000000
 Electronic spatial extent (au):  <R**2>=             65.5959
 Charge=              0.0000 electrons
 Dipole moment (field-independent basis, Debye):
    X=              0.0000    Y=              0.0000    Z=              1.5020  Tot=              1.5020
 Quadrupole moment (field-independent basis, Debye-Ang):
   XX=            -10.3252   YY=             -9.7967   ZZ=            -11.8314
   XY=             -3.2768   XZ=              0.0000   YZ=              0.0000
 Traceless Quadrupole moment (field-independent basis, Debye-Ang):
   XX=              0.3259   YY=              0.8544   ZZ=             -1.1803
   XY=             -3.2768   XZ=              0.0000   YZ=              0.0000
 Octapole moment (field-independent basis, Debye-Ang**2):
  XXX=              0.0000  YYY=              0.0000  ZZZ=              0.8411  XYY=             -0.0000
  XXY=             -0.0000  XXZ=              1.8530  XZZ=              0.0000  YZZ=              0.0000
  YYZ=              0.8352  XYZ=             -1.2394
 Hexadecapole moment (field-independent basis, Debye-Ang**3):
 XXXX=            -41.6372 YYYY=            -10.3637 ZZZZ=             -9.3814 XXXY=             -3.9032
 XXXZ=              0.0000 YYYX=             -2.8553 YYYZ=              0.0000 ZZZX=              0.0000
 ZZZY=              0.0000 XXYY=             -7.9934 XXZZ=             -9.3820 YYZZ=             -3.1859
 XXYZ=             -0.0000 YYXZ=              0.0000 ZZXY=             -0.8726
 N-N= 3.677441637567D+01 E-N=-4.317430215367D+02  KE= 1.503382705829D+02
 No NMR shielding tensors so no spin-rotation constants.
 Leave Link  601 at Tue Sep 10 12:24:53 2019, MaxMem=  2684354560 cpu:         1.6
 (Enter /soft/gaussian/09-e.01/g09/l701.exe)
 Compute integral first derivatives.
 ... and contract with generalized density number  0.
 Leave Link  701 at Tue Sep 10 12:24:54 2019, MaxMem=  2684354560 cpu:         1.5
 (Enter /soft/gaussian/09-e.01/g09/l702.exe)
 L702 exits ... SP integral derivatives will be done elsewhere.
 Leave Link  702 at Tue Sep 10 12:24:54 2019, MaxMem=  2684354560 cpu:         0.1
 (Enter /soft/gaussian/09-e.01/g09/l703.exe)
 Compute integral first derivatives, UseDBF=F ICtDFT=           0.
 Integral derivatives from FoFJK, PRISM(SPDF).
 Calling FoFJK, ICntrl=      2127 FMM=F ISym2X=0 I1Cent= 0 IOpClX= 0 NMat=1 NMatS=1 NMatT=0.
 FoFJK:  IHMeth= 1 ICntrl=    2127 DoSepK=F KAlg= 0 I1Cent=   0 FoldK=F
 IRaf=         0 NMat=   1 IRICut=       1 DoRegI=T DoRafI=F ISym2E= 0.
 FoFCou: FMM=F IPFlag=           0 FMFlag=      100000 FMFlg1=         800
         NFxFlg=           0 DoJE=F BraDBF=F KetDBF=F FulRan=T
         wScrn=  0.000000 ICntrl=    2127 IOpCl=  0 I1Cent=           0 NGrid=           0
         NMat0=    1 NMatS0=      1 NMatT0=    0 NMatD0=    1 NMtDS0=    0 NMtDT0=    0
 Symmetry not used in FoFCou.
 Leave Link  703 at Tue Sep 10 12:24:54 2019, MaxMem=  2684354560 cpu:         1.8
 (Enter /soft/gaussian/09-e.01/g09/l716.exe)
 Dipole        = 6.97140905D-07 2.21204474D-07 5.90935152D-01
 ***** Axes restored to original set *****
 -------------------------------------------------------------------
 Center     Atomic                   Forces (Hartrees/Bohr)
 Number     Number              X              Y              Z
 -------------------------------------------------------------------
      1        8           0.010674998   -0.003628091   -0.003352946
      2        8          -0.009575934    0.005951533    0.003352747
      3        1          -0.003525567    0.000246065   -0.006129988
      4        1           0.002426503   -0.002569507    0.006130187
 -------------------------------------------------------------------
 Cartesian Forces:  Max     0.010674998 RMS     0.005603997
 -----------------------------------------------------------------------------------------------
                       Internal Coordinate Forces (Hartree/Bohr or radian)
  Cent   Atom   N1       Length/X         N2         Alpha/Y        N3         Beta/Z          J
 -----------------------------------------------------------------------------------------------
      1  O 
      2  O        1   0.009483(     1)
      3  H        1  -0.002778(     2)      2   0.011995(     4)
      4  H        2  -0.002778(     3)      1   0.011995(     5)      3  -0.000451(     6)     0
 -----------------------------------------------------------------------------------------------
 Internal  Forces:  Max     0.011995203 RMS     0.008096555
 Force constants in Cartesian coordinates: 
                1             2             3             4             5 
      1  0.552121D+00
      2 -0.105005D-01  0.144952D-01
      3 -0.242233D-01  0.000000D+00  0.430818D+00
      4 -0.350268D-01  0.137009D-01 -0.313486D-01  0.241099D+00
      5  0.121533D-01 -0.138141D-01  0.000000D+00 -0.265686D+00  0.325517D+00
      6 -0.198844D-01  0.242353D-01 -0.377190D+00 -0.153643D-01  0.187262D-01
      7 -0.518674D+00  0.000000D+00  0.555720D-01  0.372306D-02  0.000000D+00
      8  0.105770D-03 -0.177826D-02  0.000000D+00 -0.144184D-02 -0.104617D-02
      9  0.242233D-01  0.000000D+00 -0.536280D-01  0.313486D-01  0.000000D+00
     10  0.157967D-02 -0.320039D-02  0.000000D+00 -0.209795D+00  0.253533D+00
     11 -0.175856D-02  0.109717D-02  0.000000D+00  0.253427D+00 -0.310657D+00
     12  0.198844D-01 -0.242353D-01  0.000000D+00  0.153643D-01 -0.187262D-01
                6             7             8             9            10 
      6  0.430818D+00
      7  0.000000D+00  0.514951D+00
      8  0.000000D+00  0.000000D+00  0.172822D-02
      9  0.000000D+00 -0.555720D-01  0.000000D+00  0.536280D-01
     10  0.352487D-01  0.000000D+00  0.133607D-02  0.000000D+00  0.208216D+00
     11 -0.429614D-01  0.000000D+00  0.109621D-02  0.000000D+00 -0.251669D+00
     12 -0.536278D-01  0.000000D+00  0.000000D+00  0.000000D+00 -0.352487D-01
               11            12 
     11  0.308464D+00
     12  0.429614D-01  0.536278D-01
 Force constants in internal coordinates: 
                1             2             3             4             5 
      1  0.377190D+00
      2  0.000000D+00  0.521551D+00
      3  0.000000D+00  0.000000D+00  0.521551D+00
      4  0.000000D+00  0.000000D+00  0.000000D+00  0.160000D+00
      5  0.000000D+00  0.000000D+00  0.000000D+00  0.000000D+00  0.160000D+00
      6  0.000000D+00  0.000000D+00  0.000000D+00  0.000000D+00  0.000000D+00
                6 
      6  0.579801D-02
 Leave Link  716 at Tue Sep 10 12:24:54 2019, MaxMem=  2684354560 cpu:         0.2
 (Enter /soft/gaussian/09-e.01/g09/l103.exe)

 GradGradGradGradGradGradGradGradGradGradGradGradGradGradGradGradGradGrad
 Berny optimization.
 Search for a local minimum.
 Step number   1 out of a maximum of   20
 All quantities printed in internal units (Hartrees-Bohrs-Radians)
 Second derivative matrix not updated -- first step.
 The second derivative matrix:
                          R1        R2        A2        R3        A3
           R1           0.37719
           R2          -0.00000   0.52155
           A2           0.00000   0.00000   0.16000
           R3          -0.00000  -0.00000  -0.00000   0.52155
           A3          -0.00000  -0.00000   0.00000  -0.00000   0.16000
           D3          -0.00000   0.00000   0.00000   0.00000  -0.00000
                          D3
           D3           0.00580
 ITU=  0
     Eigenvalues ---    0.00580   0.16000   0.16000   0.37719   0.52155
     Eigenvalues ---    0.52155
 RFO step:  Lambda=-2.06797790D-03 EMin= 5.79800542D-03
 Linear search not attempted -- first point.
 Variable       Old X    -DE/DX   Delta X   Delta X   Delta X     New X
                                 (Linear)    (Quad)   (Total)
    R1        2.74776   0.00948   0.00000   0.02500   0.02500   2.77276
    R2        1.84451  -0.00278   0.00000  -0.00531  -0.00531   1.83921
    A2        1.68901   0.01199   0.00000   0.07401   0.07401   1.76302
    R3        1.84451  -0.00278   0.00000  -0.00531  -0.00531   1.83921
    A3        1.68900   0.01200   0.00000   0.07401   0.07401   1.76302
    D3        2.25790  -0.00045   0.00000  -0.05730  -0.05730   2.20060
         Item               Value     Threshold  Converged?
 Maximum Force            0.011995     0.000450     NO 
 RMS     Force            0.008097     0.000300     NO 
 Maximum Displacement     0.074013     0.001800     NO 
 RMS     Displacement     0.049867     0.001200     NO 
 Predicted change in Energy=-1.049412D-03
 Lowest energy point so far.  Saving SCF results.
 GradGradGradGradGradGradGradGradGradGradGradGradGradGradGradGradGradGrad

 Leave Link  103 at Tue Sep 10 12:24:54 2019, MaxMem=  2684354560 cpu:         0.1
 (Enter /soft/gaussian/09-e.01/g09/l202.exe)
 ---------------------------------------------------------------------------------------------------
                            Z-MATRIX (ANGSTROMS AND DEGREES)
   CD    Cent   Atom    N1       Length/X        N2       Alpha/Y        N3        Beta/Z          J
 ---------------------------------------------------------------------------------------------------
      1      1  O 
      2      2  O        1   1.467283(     1)
      3      3  H        1   0.973265(     2)      2  101.013(     4)
      4      4  H        2   0.973265(     3)      1  101.013(     5)      3  126.085(     6)      0
 ---------------------------------------------------------------------------------------------------
                         Z-Matrix orientation:                         
 ---------------------------------------------------------------------
 Center     Atomic      Atomic             Coordinates (Angstroms)
 Number     Number       Type             X           Y           Z
 ---------------------------------------------------------------------
      1          8           0        0.000000    0.000000    0.000000
      2          8           0        0.000000    0.000000    1.467283
      3          1           0        0.955340    0.000000   -0.185932
      4          1           0       -0.562682    0.772052    1.653216
 ---------------------------------------------------------------------
                    Distance matrix (angstroms):
                    1          2          3          4
     1  O    0.000000
     2  O    1.467283   0.000000
     3  H    0.973265   1.909397   0.000000
     4  H    1.909397   0.973265   2.506575   0.000000
 Stoichiometry    H2O2
 Framework group  C1[X(H2O2)]
 Deg. of freedom     6
 Full point group                 C1      NOp   1
 RotChk:  IX=3 Diff= 4.05D-02
 Largest Abelian subgroup         C1      NOp   1
 Largest concise Abelian subgroup C1      NOp   1
                         Standard orientation:                         
 ---------------------------------------------------------------------
 Center     Atomic      Atomic             Coordinates (Angstroms)
 Number     Number       Type             X           Y           Z
 ---------------------------------------------------------------------
      1          8           0        0.723062    0.124144   -0.048120
      2          8           0       -0.723062   -0.124144   -0.048120
      3          1           0        1.050406   -0.683650    0.384963
      4          1           0       -1.050406    0.683650    0.384963
 ---------------------------------------------------------------------
 Rotational constants (GHZ):    301.5932819     26.0242603     24.7930062
 Leave Link  202 at Tue Sep 10 12:24:54 2019, MaxMem=  2684354560 cpu:         0.1
 (Enter /soft/gaussian/09-e.01/g09/l301.exe)
 Standard basis: 6-31G(d) (6D, 7F)
 Ernie: Thresh=  0.10000D-02 Tol=  0.10000D-05 Strict=F.
 There are    34 symmetry adapted cartesian basis functions of A   symmetry.
 There are    34 symmetry adapted basis functions of A   symmetry.
    34 basis functions,    64 primitive gaussians,    34 cartesian basis functions
     9 alpha electrons        9 beta electrons
       nuclear repulsion energy        36.4264856171 Hartrees.
 IExCor=  402 DFT=T Ex+Corr=B3LYP ExCW=0 ScaHFX=  0.200000
 ScaDFX=  0.800000  0.720000  1.000000  0.810000 ScalE2=  1.000000  1.000000
 IRadAn=      5 IRanWt=     -1 IRanGd=            0 ICorTp=0 IEmpDi=  4
 NAtoms=    4 NActive=    4 NUniq=    4 SFac= 1.00D+00 NAtFMM=   60 NAOKFM=F Big=F
 Integral buffers will be    131072 words long.
 Raffenetti 2 integral format.
 Two-electron integral symmetry is turned on.
 Leave Link  301 at Tue Sep 10 12:24:54 2019, MaxMem=  2684354560 cpu:         0.4
 (Enter /soft/gaussian/09-e.01/g09/l302.exe)
 NPDir=0 NMtPBC=     1 NCelOv=     1 NCel=       1 NClECP=     1 NCelD=      1
         NCelK=      1 NCelE2=     1 NClLst=     1 CellRange=     0.0.
 One-electron integrals computed using PRISM.
 NBasis=    34 RedAO= T EigKep=  1.17D-02  NBF=    34
 NBsUse=    34 1.00D-06 EigRej= -1.00D+00 NBFU=    34
 Precomputing XC quadrature grid using
 IXCGrd= 4 IRadAn=           5 IRanWt=          -1 IRanGd=           0 AccXCQ= 0.00D+00.
 Generated NRdTot=       0 NPtTot=           0 NUsed=           0 NTot=          32
 NSgBfM=    34    34    34    34    34 MxSgAt=     4 MxSgA2=     4.
 Leave Link  302 at Tue Sep 10 12:24:54 2019, MaxMem=  2684354560 cpu:         1.3
 (Enter /soft/gaussian/09-e.01/g09/l303.exe)
 DipDrv:  MaxL=1.
 Leave Link  303 at Tue Sep 10 12:24:54 2019, MaxMem=  2684354560 cpu:         0.2
 (Enter /soft/gaussian/09-e.01/g09/l401.exe)
 Initial guess from the checkpoint file:  "/blues/gpfs/home/elliott/Packages/PACC/moldriver/thermodriver/rundir/SPC/H2O2/MHAJPDPJQMAIIY/0/1/UHFFFAOYSA-N/ezvlpJR/RUN/OPTI/D00/Gau-7738.chk"
 B after Tr=     0.000000   -0.000000   -0.000000
         Rot=    0.999971   -0.000000    0.000000   -0.007637 Ang=  -0.88 deg.
 Guess basis will be translated and rotated to current coordinates.
 JPrj=2 DoOrth=T DoCkMO=T.
 Generating alternative initial guess.
 ExpMin= 1.61D-01 ExpMax= 5.48D+03 ExpMxC= 8.25D+02 IAcc=2 IRadAn=         4 AccDes= 0.00D+00
 Harris functional with IExCor=  402 and IRadAn=       4 diagonalized for initial guess.
 HarFok:  IExCor=  402 AccDes= 0.00D+00 IRadAn=         4 IDoV= 1 UseB2=F ITyADJ=14
 ICtDFT=  3500011 ScaDFX=  1.000000  1.000000  1.000000  1.000000
 FoFCou: FMM=F IPFlag=           0 FMFlag=      100000 FMFlg1=           0
         NFxFlg=           0 DoJE=T BraDBF=F KetDBF=T FulRan=T
         wScrn=  0.000000 ICntrl=     500 IOpCl=  0 I1Cent=   200000004 NGrid=           0
         NMat0=    1 NMatS0=      1 NMatT0=    0 NMatD0=    1 NMtDS0=    0 NMtDT0=    0
 Petite list used in FoFCou.
 Harris En= -151.553669172077    
 Leave Link  401 at Tue Sep 10 12:24:54 2019, MaxMem=  2684354560 cpu:         1.9
 (Enter /soft/gaussian/09-e.01/g09/l502.exe)
 Closed shell SCF:
 Using DIIS extrapolation, IDIIS=  1040.
 Integral symmetry usage will be decided dynamically.
 Keep R1 ints in memory in canonical form, NReq=1049956.
 IVT=       10008 IEndB=       10008 NGot=  2684354560 MDV=  2684167243
 LenX=  2684167243 LenY=  2684165646
 Requested convergence on RMS density matrix=1.00D-08 within  64 cycles.
 Requested convergence on MAX density matrix=1.00D-06.
 Requested convergence on             energy=1.00D-06.
 No special actions if energy rises.
 FoFCou: FMM=F IPFlag=           0 FMFlag=           0 FMFlg1=           0
         NFxFlg=           0 DoJE=F BraDBF=F KetDBF=F FulRan=T
         wScrn=  0.000000 ICntrl=     600 IOpCl=  0 I1Cent=           0 NGrid=           0
         NMat0=    1 NMatS0=    595 NMatT0=    0 NMatD0=    1 NMtDS0=    0 NMtDT0=    0
 Symmetry not used in FoFCou.
 Integral accuracy reduced to 1.0D-05 until final iterations.

 Cycle   1  Pass 0  IDiag  1:
 E= -151.532085620279    
 DIIS: error= 2.75D-03 at cycle   1 NSaved=   1.
 NSaved= 1 IEnMin= 1 EnMin= -151.532085620279     IErMin= 1 ErrMin= 2.75D-03
 ErrMax= 2.75D-03  0.00D+00 EMaxC= 1.00D-01 BMatC= 5.34D-04 BMatP= 5.34D-04
 IDIUse=3 WtCom= 9.73D-01 WtEn= 2.75D-02
 Coeff-Com:  0.100D+01
 Coeff-En:   0.100D+01
 Coeff:      0.100D+01
 Gap=     1.695 Goal=   None    Shift=    0.000
 GapD=    1.695 DampG=2.000 DampE=1.000 DampFc=2.0000 IDamp=-1.
 RMSDP=1.13D-03 MaxDP=6.40D-03              OVMax= 1.37D-02

 Cycle   2  Pass 0  IDiag  1:
 E= -151.532794985926     Delta-E=       -0.000709365647 Rises=F Damp=F
 DIIS: error= 8.18D-04 at cycle   2 NSaved=   2.
 NSaved= 2 IEnMin= 2 EnMin= -151.532794985926     IErMin= 2 ErrMin= 8.18D-04
 ErrMax= 8.18D-04  0.00D+00 EMaxC= 1.00D-01 BMatC= 2.85D-05 BMatP= 5.34D-04
 IDIUse=3 WtCom= 9.92D-01 WtEn= 8.18D-03
 Coeff-Com:  0.747D-01 0.925D+00
 Coeff-En:   0.000D+00 0.100D+01
 Coeff:      0.741D-01 0.926D+00
 Gap=     0.282 Goal=   None    Shift=    0.000
 RMSDP=2.23D-04 MaxDP=1.42D-03 DE=-7.09D-04 OVMax= 2.54D-03

 Cycle   3  Pass 0  IDiag  1:
 E= -151.532813054952     Delta-E=       -0.000018069026 Rises=F Damp=F
 DIIS: error= 5.11D-04 at cycle   3 NSaved=   3.
 NSaved= 3 IEnMin= 3 EnMin= -151.532813054952     IErMin= 3 ErrMin= 5.11D-04
 ErrMax= 5.11D-04  0.00D+00 EMaxC= 1.00D-01 BMatC= 1.48D-05 BMatP= 2.85D-05
 IDIUse=3 WtCom= 9.95D-01 WtEn= 5.11D-03
 Coeff-Com: -0.211D-01 0.406D+00 0.616D+00
 Coeff-En:   0.000D+00 0.142D+00 0.858D+00
 Coeff:     -0.210D-01 0.404D+00 0.617D+00
 Gap=     0.282 Goal=   None    Shift=    0.000
 RMSDP=9.70D-05 MaxDP=7.96D-04 DE=-1.81D-05 OVMax= 9.74D-04

 Cycle   4  Pass 0  IDiag  1:
 E= -151.532823782666     Delta-E=       -0.000010727714 Rises=F Damp=F
 DIIS: error= 1.30D-04 at cycle   4 NSaved=   4.
 NSaved= 4 IEnMin= 4 EnMin= -151.532823782666     IErMin= 4 ErrMin= 1.30D-04
 ErrMax= 1.30D-04  0.00D+00 EMaxC= 1.00D-01 BMatC= 8.86D-07 BMatP= 1.48D-05
 IDIUse=3 WtCom= 9.99D-01 WtEn= 1.30D-03
 Coeff-Com: -0.139D-01 0.110D+00 0.260D+00 0.645D+00
 Coeff-En:   0.000D+00 0.000D+00 0.000D+00 0.100D+01
 Coeff:     -0.139D-01 0.110D+00 0.259D+00 0.645D+00
 Gap=     0.282 Goal=   None    Shift=    0.000
 RMSDP=2.38D-05 MaxDP=2.07D-04 DE=-1.07D-05 OVMax= 2.73D-04

 Cycle   5  Pass 0  IDiag  1:
 E= -151.532824484015     Delta-E=       -0.000000701348 Rises=F Damp=F
 DIIS: error= 1.42D-05 at cycle   5 NSaved=   5.
 NSaved= 5 IEnMin= 5 EnMin= -151.532824484015     IErMin= 5 ErrMin= 1.42D-05
 ErrMax= 1.42D-05  0.00D+00 EMaxC= 1.00D-01 BMatC= 8.86D-09 BMatP= 8.86D-07
 IDIUse=1 WtCom= 1.00D+00 WtEn= 0.00D+00
 Coeff-Com:  0.181D-02-0.257D-01-0.410D-01 0.739D-02 0.106D+01
 Coeff:      0.181D-02-0.257D-01-0.410D-01 0.739D-02 0.106D+01
 Gap=     0.282 Goal=   None    Shift=    0.000
 RMSDP=8.36D-06 MaxDP=4.48D-05 DE=-7.01D-07 OVMax= 1.60D-04

 Initial convergence to 1.0D-05 achieved.  Increase integral accuracy.
 Cycle   6  Pass 1  IDiag  1:
 E= -151.532823279763     Delta-E=        0.000001204252 Rises=F Damp=F
 DIIS: error= 2.84D-06 at cycle   1 NSaved=   1.
 NSaved= 1 IEnMin= 1 EnMin= -151.532823279763     IErMin= 1 ErrMin= 2.84D-06
 ErrMax= 2.84D-06  0.00D+00 EMaxC= 1.00D-01 BMatC= 3.54D-10 BMatP= 3.54D-10
 IDIUse=1 WtCom= 1.00D+00 WtEn= 0.00D+00
 Coeff-Com:  0.100D+01
 Coeff:      0.100D+01
 Gap=     0.282 Goal=   None    Shift=    0.000
 RMSDP=8.36D-06 MaxDP=4.48D-05 DE= 1.20D-06 OVMax= 1.14D-05

 Cycle   7  Pass 1  IDiag  1:
 E= -151.532823280138     Delta-E=       -0.000000000375 Rises=F Damp=F
 DIIS: error= 6.62D-07 at cycle   2 NSaved=   2.
 NSaved= 2 IEnMin= 2 EnMin= -151.532823280138     IErMin= 2 ErrMin= 6.62D-07
 ErrMax= 6.62D-07  0.00D+00 EMaxC= 1.00D-01 BMatC= 2.32D-11 BMatP= 3.54D-10
 IDIUse=1 WtCom= 1.00D+00 WtEn= 0.00D+00
 Coeff-Com:  0.150D+00 0.850D+00
 Coeff:      0.150D+00 0.850D+00
 Gap=     0.282 Goal=   None    Shift=    0.000
 RMSDP=2.37D-07 MaxDP=1.22D-06 DE=-3.75D-10 OVMax= 4.61D-06

 Cycle   8  Pass 1  IDiag  1:
 E= -151.532823280166     Delta-E=       -0.000000000028 Rises=F Damp=F
 DIIS: error= 2.59D-07 at cycle   3 NSaved=   3.
 NSaved= 3 IEnMin= 3 EnMin= -151.532823280166     IErMin= 3 ErrMin= 2.59D-07
 ErrMax= 2.59D-07  0.00D+00 EMaxC= 1.00D-01 BMatC= 6.29D-12 BMatP= 2.32D-11
 IDIUse=1 WtCom= 1.00D+00 WtEn= 0.00D+00
 Coeff-Com:  0.550D-03 0.311D+00 0.688D+00
 Coeff:      0.550D-03 0.311D+00 0.688D+00
 Gap=     0.282 Goal=   None    Shift=    0.000
 RMSDP=8.45D-08 MaxDP=8.26D-07 DE=-2.76D-11 OVMax= 1.03D-06

 Cycle   9  Pass 1  IDiag  1:
 E= -151.532823280168     Delta-E=       -0.000000000002 Rises=F Damp=F
 DIIS: error= 2.59D-07 at cycle   4 NSaved=   4.
 NSaved= 4 IEnMin= 4 EnMin= -151.532823280168     IErMin= 4 ErrMin= 2.59D-07
 ErrMax= 2.59D-07  0.00D+00 EMaxC= 1.00D-01 BMatC= 4.70D-12 BMatP= 6.29D-12
 IDIUse=1 WtCom= 1.00D+00 WtEn= 0.00D+00
 Coeff-Com: -0.295D-01 0.881D-01 0.500D+00 0.441D+00
 Coeff:     -0.295D-01 0.881D-01 0.500D+00 0.441D+00
 Gap=     0.282 Goal=   None    Shift=    0.000
 RMSDP=4.26D-08 MaxDP=4.47D-07 DE=-2.10D-12 OVMax= 5.47D-07

 Cycle  10  Pass 1  IDiag  1:
 E= -151.532823280171     Delta-E=       -0.000000000004 Rises=F Damp=F
 DIIS: error= 2.17D-08 at cycle   5 NSaved=   5.
 NSaved= 5 IEnMin= 5 EnMin= -151.532823280171     IErMin= 5 ErrMin= 2.17D-08
 ErrMax= 2.17D-08  0.00D+00 EMaxC= 1.00D-01 BMatC= 2.57D-14 BMatP= 4.70D-12
 IDIUse=1 WtCom= 1.00D+00 WtEn= 0.00D+00
 Coeff-Com: -0.207D-02-0.124D-01-0.589D-01 0.114D-02 0.107D+01
 Coeff:     -0.207D-02-0.124D-01-0.589D-01 0.114D-02 0.107D+01
 Gap=     0.282 Goal=   None    Shift=    0.000
 RMSDP=1.15D-08 MaxDP=7.92D-08 DE=-3.61D-12 OVMax= 2.38D-07

 Cycle  11  Pass 1  IDiag  1:
 E= -151.532823280171     Delta-E=        0.000000000000 Rises=F Damp=F
 DIIS: error= 4.93D-09 at cycle   6 NSaved=   6.
 NSaved= 6 IEnMin= 5 EnMin= -151.532823280171     IErMin= 6 ErrMin= 4.93D-09
 ErrMax= 4.93D-09  0.00D+00 EMaxC= 1.00D-01 BMatC= 1.70D-15 BMatP= 2.57D-14
 IDIUse=1 WtCom= 1.00D+00 WtEn= 0.00D+00
 Coeff-Com:  0.592D-03-0.564D-02-0.363D-01-0.175D-01 0.311D+00 0.748D+00
 Coeff:      0.592D-03-0.564D-02-0.363D-01-0.175D-01 0.311D+00 0.748D+00
 Gap=     0.282 Goal=   None    Shift=    0.000
 RMSDP=1.35D-09 MaxDP=8.91D-09 DE= 2.84D-14 OVMax= 2.13D-08

 SCF Done:  E(RB3LYP) =  -151.532823280     A.U. after   11 cycles
            NFock= 11  Conv=0.14D-08     -V/T= 2.0082
 KE= 1.502973571164D+02 PE=-4.310332981053D+02 EE= 9.277663209166D+01
 Leave Link  502 at Tue Sep 10 12:24:55 2019, MaxMem=  2684354560 cpu:         3.7
 (Enter /soft/gaussian/09-e.01/g09/l508.exe)
 QCSCF skips out because SCF is already converged.
 Leave Link  508 at Tue Sep 10 12:24:55 2019, MaxMem=  2684354560 cpu:         0.0
 (Enter /soft/gaussian/09-e.01/g09/l701.exe)
 Compute integral first derivatives.
 ... and contract with generalized density number  0.
 Leave Link  701 at Tue Sep 10 12:24:55 2019, MaxMem=  2684354560 cpu:         1.5
 (Enter /soft/gaussian/09-e.01/g09/l702.exe)
 L702 exits ... SP integral derivatives will be done elsewhere.
 Leave Link  702 at Tue Sep 10 12:24:55 2019, MaxMem=  2684354560 cpu:         0.1
 (Enter /soft/gaussian/09-e.01/g09/l703.exe)
 Compute integral first derivatives, UseDBF=F ICtDFT=           0.
 Integral derivatives from FoFJK, PRISM(SPDF).
 Calling FoFJK, ICntrl=      2127 FMM=F ISym2X=0 I1Cent= 0 IOpClX= 0 NMat=1 NMatS=1 NMatT=0.
 FoFJK:  IHMeth= 1 ICntrl=    2127 DoSepK=F KAlg= 0 I1Cent=   0 FoldK=F
 IRaf=         0 NMat=   1 IRICut=       1 DoRegI=T DoRafI=F ISym2E= 0.
 FoFCou: FMM=F IPFlag=           0 FMFlag=      100000 FMFlg1=         800
         NFxFlg=           0 DoJE=F BraDBF=F KetDBF=F FulRan=T
         wScrn=  0.000000 ICntrl=    2127 IOpCl=  0 I1Cent=           0 NGrid=           0
         NMat0=    1 NMatS0=      1 NMatT0=    0 NMatD0=    1 NMtDS0=    0 NMtDT0=    0
 Symmetry not used in FoFCou.
 Leave Link  703 at Tue Sep 10 12:24:55 2019, MaxMem=  2684354560 cpu:         1.8
 (Enter /soft/gaussian/09-e.01/g09/l716.exe)
 Dipole        =-2.05167756D-07-1.20136058D-07 6.24548427D-01
 ***** Axes restored to original set *****
 -------------------------------------------------------------------
 Center     Atomic                   Forces (Hartrees/Bohr)
 Number     Number              X              Y              Z
 -------------------------------------------------------------------
      1        8          -0.005999253    0.001763176    0.004896556
      2        8           0.004958371   -0.003809812   -0.004896508
      3        1           0.001161392    0.000697331    0.004519175
      4        1          -0.000120511    0.001349305   -0.004519222
 -------------------------------------------------------------------
 Cartesian Forces:  Max     0.005999253 RMS     0.003771257
 -----------------------------------------------------------------------------------------------
                       Internal Coordinate Forces (Hartree/Bohr or radian)
  Cent   Atom   N1       Length/X         N2         Alpha/Y        N3         Beta/Z          J
 -----------------------------------------------------------------------------------------------
      1  O 
      2  O        1  -0.009416(     1)
      3  H        1   0.000277(     2)      2  -0.008567(     4)
      4  H        2   0.000277(     3)      1  -0.008567(     5)      3  -0.001259(     6)     0
 -----------------------------------------------------------------------------------------------
 Internal  Forces:  Max     0.009415730 RMS     0.006287174
 Leave Link  716 at Tue Sep 10 12:24:55 2019, MaxMem=  2684354560 cpu:         0.2
 (Enter /soft/gaussian/09-e.01/g09/l103.exe)

 GradGradGradGradGradGradGradGradGradGradGradGradGradGradGradGradGradGrad
 Berny optimization.
 Search for a local minimum.
 Step number   2 out of a maximum of   20
 All quantities printed in internal units (Hartrees-Bohrs-Radians)
 Update second derivatives using D2CorN and points    1    2
 DE= -2.85D-04 DEPred=-1.05D-03 R= 2.71D-01
 Trust test= 2.71D-01 RLast= 1.22D-01 DXMaxT set to 3.00D-01
 The second derivative matrix:
                          R1        R2        A2        R3        A3
           R1           0.39306
           R2          -0.00192   0.52165
           A2           0.03079  -0.00226   0.20325
           R3          -0.00192   0.00010  -0.00226   0.52165
           A3           0.03079  -0.00226   0.04325  -0.00226   0.20326
           D3          -0.01722   0.00035  -0.01391   0.00035  -0.01391
                          D3
           D3           0.00142
 ITU=  0  0
     Eigenvalues ---   -0.00064   0.16000   0.23538   0.40607   0.52155
     Eigenvalues ---    0.52193
 Eigenvalue     1 is  -6.39D-04 should be greater than     0.000000 Eigenvector:
                          D3        A2        A3        R1        R3
   1                    0.99669   0.05169   0.05169   0.03552  -0.00009
                          R2
   1                   -0.00009
 RFO step:  Lambda=-1.18250075D-03 EMin=-6.38596447D-04
 Quartic linear search produced a step of -0.42290.
 Maximum step size (   0.300) exceeded in Quadratic search.
    -- Step size scaled by   0.300
 Variable       Old X    -DE/DX   Delta X   Delta X   Delta X     New X
                                 (Linear)    (Quad)   (Total)
    R1        2.77276  -0.00942  -0.01057  -0.01179  -0.02236   2.75040
    R2        1.83921   0.00028   0.00224  -0.00055   0.00169   1.84090
    A2        1.76302  -0.00857  -0.03130  -0.01545  -0.04675   1.71627
    R3        1.83921   0.00028   0.00224  -0.00055   0.00169   1.84090
    A3        1.76302  -0.00857  -0.03130  -0.01545  -0.04675   1.71627
    D3        2.20060  -0.00126   0.02423  -0.29897  -0.27474   1.92586
         Item               Value     Threshold  Converged?
 Maximum Force            0.009416     0.000450     NO 
 RMS     Force            0.006287     0.000300     NO 
 Maximum Displacement     0.274739     0.001800     NO 
 RMS     Displacement     0.115728     0.001200     NO 
 Predicted change in Energy=-1.064632D-03
 Lowest energy point so far.  Saving SCF results.
 GradGradGradGradGradGradGradGradGradGradGradGradGradGradGradGradGradGrad

 Leave Link  103 at Tue Sep 10 12:24:55 2019, MaxMem=  2684354560 cpu:         0.2
 (Enter /soft/gaussian/09-e.01/g09/l202.exe)
 ---------------------------------------------------------------------------------------------------
                            Z-MATRIX (ANGSTROMS AND DEGREES)
   CD    Cent   Atom    N1       Length/X        N2       Alpha/Y        N3        Beta/Z          J
 ---------------------------------------------------------------------------------------------------
      1      1  O 
      2      2  O        1   1.455449(     1)
      3      3  H        1   0.974162(     2)      2   98.335(     4)
      4      4  H        2   0.974162(     3)      1   98.335(     5)      3  110.344(     6)      0
 ---------------------------------------------------------------------------------------------------
                         Z-Matrix orientation:                         
 ---------------------------------------------------------------------
 Center     Atomic      Atomic             Coordinates (Angstroms)
 Number     Number       Type             X           Y           Z
 ---------------------------------------------------------------------
      1          8           0        0.000000    0.000000    0.000000
      2          8           0        0.000000    0.000000    1.455449
      3          1           0        0.963872    0.000000   -0.141214
      4          1           0       -0.335091    0.903750    1.596663
 ---------------------------------------------------------------------
                    Distance matrix (angstroms):
                    1          2          3          4
     1  O    0.000000
     2  O    1.455449   0.000000
     3  H    0.974162   1.865042   0.000000
     4  H    1.865042   0.974162   2.350380   0.000000
 Stoichiometry    H2O2
 Framework group  C1[X(H2O2)]
 Deg. of freedom     6
 Full point group                 C1      NOp   1
 RotChk:  IX=0 Diff= 1.96D-01
 Largest Abelian subgroup         C1      NOp   1
 Largest concise Abelian subgroup C1      NOp   1
                         Standard orientation:                         
 ---------------------------------------------------------------------
 Center     Atomic      Atomic             Coordinates (Angstroms)
 Number     Number       Type             X           Y           Z
 ---------------------------------------------------------------------
      1          8           0        0.719272    0.110594   -0.061165
      2          8           0       -0.719272   -0.110594   -0.061165
      3          1           0        0.979088   -0.649968    0.489319
      4          1           0       -0.979088    0.649968    0.489319
 ---------------------------------------------------------------------
 Rotational constants (GHZ):    292.8874144     26.3923061     25.6212070
 Leave Link  202 at Tue Sep 10 12:24:55 2019, MaxMem=  2684354560 cpu:         0.1
 (Enter /soft/gaussian/09-e.01/g09/l301.exe)
 Standard basis: 6-31G(d) (6D, 7F)
 Ernie: Thresh=  0.10000D-02 Tol=  0.10000D-05 Strict=F.
 There are    34 symmetry adapted cartesian basis functions of A   symmetry.
 There are    34 symmetry adapted basis functions of A   symmetry.
    34 basis functions,    64 primitive gaussians,    34 cartesian basis functions
     9 alpha electrons        9 beta electrons
       nuclear repulsion energy        36.7256485007 Hartrees.
 IExCor=  402 DFT=T Ex+Corr=B3LYP ExCW=0 ScaHFX=  0.200000
 ScaDFX=  0.800000  0.720000  1.000000  0.810000 ScalE2=  1.000000  1.000000
 IRadAn=      5 IRanWt=     -1 IRanGd=            0 ICorTp=0 IEmpDi=  4
 NAtoms=    4 NActive=    4 NUniq=    4 SFac= 1.00D+00 NAtFMM=   60 NAOKFM=F Big=F
 Integral buffers will be    131072 words long.
 Raffenetti 2 integral format.
 Two-electron integral symmetry is turned on.
 Leave Link  301 at Tue Sep 10 12:24:55 2019, MaxMem=  2684354560 cpu:         0.4
 (Enter /soft/gaussian/09-e.01/g09/l302.exe)
 NPDir=0 NMtPBC=     1 NCelOv=     1 NCel=       1 NClECP=     1 NCelD=      1
         NCelK=      1 NCelE2=     1 NClLst=     1 CellRange=     0.0.
 One-electron integrals computed using PRISM.
 NBasis=    34 RedAO= T EigKep=  1.13D-02  NBF=    34
 NBsUse=    34 1.00D-06 EigRej= -1.00D+00 NBFU=    34
 Precomputing XC quadrature grid using
 IXCGrd= 4 IRadAn=           5 IRanWt=          -1 IRanGd=           0 AccXCQ= 0.00D+00.
 Generated NRdTot=       0 NPtTot=           0 NUsed=           0 NTot=          32
 NSgBfM=    34    34    34    34    34 MxSgAt=     4 MxSgA2=     4.
 Leave Link  302 at Tue Sep 10 12:24:55 2019, MaxMem=  2684354560 cpu:         1.5
 (Enter /soft/gaussian/09-e.01/g09/l303.exe)
 DipDrv:  MaxL=1.
 Leave Link  303 at Tue Sep 10 12:24:55 2019, MaxMem=  2684354560 cpu:         0.2
 (Enter /soft/gaussian/09-e.01/g09/l401.exe)
 Initial guess from the checkpoint file:  "/blues/gpfs/home/elliott/Packages/PACC/moldriver/thermodriver/rundir/SPC/H2O2/MHAJPDPJQMAIIY/0/1/UHFFFAOYSA-N/ezvlpJR/RUN/OPTI/D00/Gau-7738.chk"
 B after Tr=     0.000000    0.000000    0.000000
         Rot=    0.999971    0.000000   -0.000000    0.007660 Ang=   0.88 deg.
 Guess basis will be translated and rotated to current coordinates.
 JPrj=2 DoOrth=T DoCkMO=T.
 Generating alternative initial guess.
 ExpMin= 1.61D-01 ExpMax= 5.48D+03 ExpMxC= 8.25D+02 IAcc=2 IRadAn=         4 AccDes= 0.00D+00
 Harris functional with IExCor=  402 and IRadAn=       4 diagonalized for initial guess.
 HarFok:  IExCor=  402 AccDes= 0.00D+00 IRadAn=         4 IDoV= 1 UseB2=F ITyADJ=14
 ICtDFT=  3500011 ScaDFX=  1.000000  1.000000  1.000000  1.000000
 FoFCou: FMM=F IPFlag=           0 FMFlag=      100000 FMFlg1=           0
         NFxFlg=           0 DoJE=T BraDBF=F KetDBF=T FulRan=T
         wScrn=  0.000000 ICntrl=     500 IOpCl=  0 I1Cent=   200000004 NGrid=           0
         NMat0=    1 NMatS0=      1 NMatT0=    0 NMatD0=    1 NMtDS0=    0 NMtDT0=    0
 Petite list used in FoFCou.
 Harris En= -151.552956922942    
 Leave Link  401 at Tue Sep 10 12:24:56 2019, MaxMem=  2684354560 cpu:         1.6
 (Enter /soft/gaussian/09-e.01/g09/l502.exe)
 Closed shell SCF:
 Using DIIS extrapolation, IDIIS=  1040.
 Integral symmetry usage will be decided dynamically.
 Keep R1 ints in memory in canonical form, NReq=1049956.
 IVT=       10008 IEndB=       10008 NGot=  2684354560 MDV=  2684167243
 LenX=  2684167243 LenY=  2684165646
 Requested convergence on RMS density matrix=1.00D-08 within  64 cycles.
 Requested convergence on MAX density matrix=1.00D-06.
 Requested convergence on             energy=1.00D-06.
 No special actions if energy rises.
 FoFCou: FMM=F IPFlag=           0 FMFlag=           0 FMFlg1=           0
         NFxFlg=           0 DoJE=F BraDBF=F KetDBF=F FulRan=T
         wScrn=  0.000000 ICntrl=     600 IOpCl=  0 I1Cent=           0 NGrid=           0
         NMat0=    1 NMatS0=    595 NMatT0=    0 NMatD0=    1 NMtDS0=    0 NMtDT0=    0
 Symmetry not used in FoFCou.
 Integral accuracy reduced to 1.0D-05 until final iterations.

 Cycle   1  Pass 0  IDiag  1:
 E= -151.528214268592    
 DIIS: error= 7.71D-03 at cycle   1 NSaved=   1.
 NSaved= 1 IEnMin= 1 EnMin= -151.528214268592     IErMin= 1 ErrMin= 7.71D-03
 ErrMax= 7.71D-03  0.00D+00 EMaxC= 1.00D-01 BMatC= 2.90D-03 BMatP= 2.90D-03
 IDIUse=3 WtCom= 9.23D-01 WtEn= 7.71D-02
 Coeff-Com:  0.100D+01
 Coeff-En:   0.100D+01
 Coeff:      0.100D+01
 Gap=     1.660 Goal=   None    Shift=    0.000
 GapD=    1.660 DampG=2.000 DampE=1.000 DampFc=2.0000 IDamp=-1.
 RMSDP=2.68D-03 MaxDP=2.22D-02              OVMax= 3.02D-02

 Cycle   2  Pass 0  IDiag  1:
 E= -151.532834119705     Delta-E=       -0.004619851113 Rises=F Damp=F
 DIIS: error= 9.98D-04 at cycle   2 NSaved=   2.
 NSaved= 2 IEnMin= 2 EnMin= -151.532834119705     IErMin= 2 ErrMin= 9.98D-04
 ErrMax= 9.98D-04  0.00D+00 EMaxC= 1.00D-01 BMatC= 5.07D-05 BMatP= 2.90D-03
 IDIUse=3 WtCom= 9.90D-01 WtEn= 9.98D-03
 Coeff-Com: -0.285D-01 0.103D+01
 Coeff-En:   0.000D+00 0.100D+01
 Coeff:     -0.282D-01 0.103D+01
 Gap=     0.302 Goal=   None    Shift=    0.000
 RMSDP=4.54D-04 MaxDP=2.81D-03 DE=-4.62D-03 OVMax= 5.30D-03

 Cycle   3  Pass 0  IDiag  1:
 E= -151.532904160301     Delta-E=       -0.000070040596 Rises=F Damp=F
 DIIS: error= 5.84D-04 at cycle   3 NSaved=   3.
 NSaved= 3 IEnMin= 3 EnMin= -151.532904160301     IErMin= 3 ErrMin= 5.84D-04
 ErrMax= 5.84D-04  0.00D+00 EMaxC= 1.00D-01 BMatC= 1.99D-05 BMatP= 5.07D-05
 IDIUse=3 WtCom= 9.94D-01 WtEn= 5.84D-03
 Coeff-Com: -0.297D-01 0.386D+00 0.644D+00
 Coeff-En:   0.000D+00 0.000D+00 0.100D+01
 Coeff:     -0.295D-01 0.383D+00 0.646D+00
 Gap=     0.302 Goal=   None    Shift=    0.000
 RMSDP=1.25D-04 MaxDP=1.15D-03 DE=-7.00D-05 OVMax= 1.37D-03

 Cycle   4  Pass 0  IDiag  1:
 E= -151.532918229719     Delta-E=       -0.000014069418 Rises=F Damp=F
 DIIS: error= 2.03D-04 at cycle   4 NSaved=   4.
 NSaved= 4 IEnMin= 4 EnMin= -151.532918229719     IErMin= 4 ErrMin= 2.03D-04
 ErrMax= 2.03D-04  0.00D+00 EMaxC= 1.00D-01 BMatC= 2.23D-06 BMatP= 1.99D-05
 IDIUse=3 WtCom= 9.98D-01 WtEn= 2.03D-03
 Coeff-Com: -0.120D-01 0.956D-01 0.292D+00 0.625D+00
 Coeff-En:   0.000D+00 0.000D+00 0.000D+00 0.100D+01
 Coeff:     -0.119D-01 0.954D-01 0.291D+00 0.626D+00
 Gap=     0.302 Goal=   None    Shift=    0.000
 RMSDP=3.55D-05 MaxDP=3.36D-04 DE=-1.41D-05 OVMax= 3.80D-04

 Cycle   5  Pass 0  IDiag  1:
 E= -151.532919938170     Delta-E=       -0.000001708451 Rises=F Damp=F
 DIIS: error= 2.96D-05 at cycle   5 NSaved=   5.
 NSaved= 5 IEnMin= 5 EnMin= -151.532919938170     IErMin= 5 ErrMin= 2.96D-05
 ErrMax= 2.96D-05  0.00D+00 EMaxC= 1.00D-01 BMatC= 3.35D-08 BMatP= 2.23D-06
 IDIUse=1 WtCom= 1.00D+00 WtEn= 0.00D+00
 Coeff-Com:  0.149D-02-0.215D-01-0.168D-01 0.851D-01 0.952D+00
 Coeff:      0.149D-02-0.215D-01-0.168D-01 0.851D-01 0.952D+00
 Gap=     0.302 Goal=   None    Shift=    0.000
 RMSDP=9.01D-06 MaxDP=6.78D-05 DE=-1.71D-06 OVMax= 1.39D-04

 Initial convergence to 1.0D-05 achieved.  Increase integral accuracy.
 Cycle   6  Pass 1  IDiag  1:
 E= -151.532918453647     Delta-E=        0.000001484522 Rises=F Damp=F
 DIIS: error= 2.86D-06 at cycle   1 NSaved=   1.
 NSaved= 1 IEnMin= 1 EnMin= -151.532918453647     IErMin= 1 ErrMin= 2.86D-06
 ErrMax= 2.86D-06  0.00D+00 EMaxC= 1.00D-01 BMatC= 4.16D-10 BMatP= 4.16D-10
 IDIUse=1 WtCom= 1.00D+00 WtEn= 0.00D+00
 Coeff-Com:  0.100D+01
 Coeff:      0.100D+01
 Gap=     0.302 Goal=   None    Shift=    0.000
 RMSDP=9.01D-06 MaxDP=6.78D-05 DE= 1.48D-06 OVMax= 1.27D-05

 Cycle   7  Pass 1  IDiag  1:
 E= -151.532918454118     Delta-E=       -0.000000000471 Rises=F Damp=F
 DIIS: error= 1.26D-06 at cycle   2 NSaved=   2.
 NSaved= 2 IEnMin= 2 EnMin= -151.532918454118     IErMin= 2 ErrMin= 1.26D-06
 ErrMax= 1.26D-06  0.00D+00 EMaxC= 1.00D-01 BMatC= 7.71D-11 BMatP= 4.16D-10
 IDIUse=1 WtCom= 1.00D+00 WtEn= 0.00D+00
 Coeff-Com:  0.256D+00 0.744D+00
 Coeff:      0.256D+00 0.744D+00
 Gap=     0.302 Goal=   None    Shift=    0.000
 RMSDP=3.18D-07 MaxDP=1.66D-06 DE=-4.71D-10 OVMax= 4.60D-06

 Cycle   8  Pass 1  IDiag  1:
 E= -151.532918454181     Delta-E=       -0.000000000062 Rises=F Damp=F
 DIIS: error= 5.57D-07 at cycle   3 NSaved=   3.
 NSaved= 3 IEnMin= 3 EnMin= -151.532918454181     IErMin= 3 ErrMin= 5.57D-07
 ErrMax= 5.57D-07  0.00D+00 EMaxC= 1.00D-01 BMatC= 1.73D-11 BMatP= 7.71D-11
 IDIUse=1 WtCom= 1.00D+00 WtEn= 0.00D+00
 Coeff-Com:  0.252D-01 0.316D+00 0.658D+00
 Coeff:      0.252D-01 0.316D+00 0.658D+00
 Gap=     0.302 Goal=   None    Shift=    0.000
 RMSDP=1.18D-07 MaxDP=9.30D-07 DE=-6.21D-11 OVMax= 1.42D-06

 Cycle   9  Pass 1  IDiag  1:
 E= -151.532918454195     Delta-E=       -0.000000000014 Rises=F Damp=F
 DIIS: error= 1.57D-07 at cycle   4 NSaved=   4.
 NSaved= 4 IEnMin= 4 EnMin= -151.532918454195     IErMin= 4 ErrMin= 1.57D-07
 ErrMax= 1.57D-07  0.00D+00 EMaxC= 1.00D-01 BMatC= 1.36D-12 BMatP= 1.73D-11
 IDIUse=1 WtCom= 1.00D+00 WtEn= 0.00D+00
 Coeff-Com: -0.285D-01 0.353D-01 0.247D+00 0.746D+00
 Coeff:     -0.285D-01 0.353D-01 0.247D+00 0.746D+00
 Gap=     0.302 Goal=   None    Shift=    0.000
 RMSDP=3.44D-08 MaxDP=2.49D-07 DE=-1.40D-11 OVMax= 6.23D-07

 Cycle  10  Pass 1  IDiag  1:
 E= -151.532918454196     Delta-E=       -0.000000000001 Rises=F Damp=F
 DIIS: error= 1.70D-08 at cycle   5 NSaved=   5.
 NSaved= 5 IEnMin= 5 EnMin= -151.532918454196     IErMin= 5 ErrMin= 1.70D-08
 ErrMax= 1.70D-08  0.00D+00 EMaxC= 1.00D-01 BMatC= 2.14D-14 BMatP= 1.36D-12
 IDIUse=1 WtCom= 1.00D+00 WtEn= 0.00D+00
 Coeff-Com: -0.359D-02-0.423D-02-0.633D-02 0.467D-01 0.967D+00
 Coeff:     -0.359D-02-0.423D-02-0.633D-02 0.467D-01 0.967D+00
 Gap=     0.302 Goal=   None    Shift=    0.000
 RMSDP=9.02D-09 MaxDP=7.59D-08 DE=-1.19D-12 OVMax= 1.59D-07

 SCF Done:  E(RB3LYP) =  -151.532918454     A.U. after   10 cycles
            NFock= 10  Conv=0.90D-08     -V/T= 2.0080
 KE= 1.503321719724D+02 PE=-4.316282203028D+02 EE= 9.303748137542D+01
 Leave Link  502 at Tue Sep 10 12:24:56 2019, MaxMem=  2684354560 cpu:         3.4
 (Enter /soft/gaussian/09-e.01/g09/l508.exe)
 QCSCF skips out because SCF is already converged.
 Leave Link  508 at Tue Sep 10 12:24:56 2019, MaxMem=  2684354560 cpu:         0.0
 (Enter /soft/gaussian/09-e.01/g09/l701.exe)
 Compute integral first derivatives.
 ... and contract with generalized density number  0.
 Leave Link  701 at Tue Sep 10 12:24:56 2019, MaxMem=  2684354560 cpu:         1.3
 (Enter /soft/gaussian/09-e.01/g09/l702.exe)
 L702 exits ... SP integral derivatives will be done elsewhere.
 Leave Link  702 at Tue Sep 10 12:24:56 2019, MaxMem=  2684354560 cpu:         0.1
 (Enter /soft/gaussian/09-e.01/g09/l703.exe)
 Compute integral first derivatives, UseDBF=F ICtDFT=           0.
 Integral derivatives from FoFJK, PRISM(SPDF).
 Calling FoFJK, ICntrl=      2127 FMM=F ISym2X=0 I1Cent= 0 IOpClX= 0 NMat=1 NMatS=1 NMatT=0.
 FoFJK:  IHMeth= 1 ICntrl=    2127 DoSepK=F KAlg= 0 I1Cent=   0 FoldK=F
 IRaf=         0 NMat=   1 IRICut=       1 DoRegI=T DoRafI=F ISym2E= 0.
 FoFCou: FMM=F IPFlag=           0 FMFlag=      100000 FMFlg1=         800
         NFxFlg=           0 DoJE=F BraDBF=F KetDBF=F FulRan=T
         wScrn=  0.000000 ICntrl=    2127 IOpCl=  0 I1Cent=           0 NGrid=           0
         NMat0=    1 NMatS0=      1 NMatT0=    0 NMatD0=    1 NMtDS0=    0 NMtDT0=    0
 Symmetry not used in FoFCou.
 Leave Link  703 at Tue Sep 10 12:24:56 2019, MaxMem=  2684354560 cpu:         1.9
 (Enter /soft/gaussian/09-e.01/g09/l716.exe)
 Dipole        = 4.64522063D-07 2.51913390D-07 7.81591662D-01
 ***** Axes restored to original set *****
 -------------------------------------------------------------------
 Center     Atomic                   Forces (Hartrees/Bohr)
 Number     Number              X              Y              Z
 -------------------------------------------------------------------
      1        8           0.004368467   -0.001463723    0.000393422
      2        8          -0.002891113    0.003587158   -0.000393467
      3        1          -0.000886046   -0.000959179   -0.003870264
      4        1          -0.000591308   -0.001164256    0.003870309
 -------------------------------------------------------------------
 Cartesian Forces:  Max     0.004368467 RMS     0.002518768
 -----------------------------------------------------------------------------------------------
                       Internal Coordinate Forces (Hartree/Bohr or radian)
  Cent   Atom   N1       Length/X         N2         Alpha/Y        N3         Beta/Z          J
 -----------------------------------------------------------------------------------------------
      1  O 
      2  O        1   0.003477(     1)
      3  H        1  -0.000316(     2)      2   0.007286(     4)
      4  H        2  -0.000316(     3)      1   0.007286(     5)      3   0.001747(     6)     0
 -----------------------------------------------------------------------------------------------
 Internal  Forces:  Max     0.007286043 RMS     0.004500216
 Leave Link  716 at Tue Sep 10 12:24:56 2019, MaxMem=  2684354560 cpu:         0.2
 (Enter /soft/gaussian/09-e.01/g09/l103.exe)

 GradGradGradGradGradGradGradGradGradGradGradGradGradGradGradGradGradGrad
 Berny optimization.
 Search for a local minimum.
 Step number   3 out of a maximum of   20
 All quantities printed in internal units (Hartrees-Bohrs-Radians)
 Update second derivatives using D2CorN and points    1    2    3
 DE= -9.52D-05 DEPred=-1.06D-03 R= 8.94D-02
 Trust test= 8.94D-02 RLast= 2.83D-01 DXMaxT set to 1.50D-01
 The second derivative matrix:
                          R1        R2        A2        R3        A3
           R1           0.39439
           R2          -0.00190   0.52166
           A2           0.03254  -0.00216   0.20446
           R3          -0.00190   0.00011  -0.00216   0.52166
           A3           0.03255  -0.00216   0.04447  -0.00216   0.20447
           D3          -0.00472   0.00135   0.00509   0.00135   0.00509
                          D3
           D3           0.01287
 ITU= -1  0  0
     Eigenvalues ---    0.01254   0.16000   0.23586   0.40762   0.52155
     Eigenvalues ---    0.52194
 RFO step:  Lambda=-1.71558239D-05 EMin= 1.25405161D-02
 Quartic linear search produced a step of -0.45657.
 Variable       Old X    -DE/DX   Delta X   Delta X   Delta X     New X
                                 (Linear)    (Quad)   (Total)
    R1        2.75040   0.00348   0.01021  -0.00610   0.00411   2.75451
    R2        1.84090  -0.00032  -0.00077  -0.00013  -0.00091   1.83999
    A2        1.71627   0.00729   0.02134   0.00062   0.02196   1.73823
    R3        1.84090  -0.00032  -0.00077  -0.00013  -0.00091   1.83999
    A3        1.71627   0.00729   0.02134   0.00062   0.02196   1.73823
    D3        1.92586   0.00175   0.12544   0.01214   0.13757   2.06344
         Item               Value     Threshold  Converged?
 Maximum Force            0.007286     0.000450     NO 
 RMS     Force            0.004500     0.000300     NO 
 Maximum Displacement     0.137574     0.001800     NO 
 RMS     Displacement     0.057604     0.001200     NO 
 Predicted change in Energy=-2.958202D-04
 Lowest energy point so far.  Saving SCF results.
 GradGradGradGradGradGradGradGradGradGradGradGradGradGradGradGradGradGrad

 Leave Link  103 at Tue Sep 10 12:24:56 2019, MaxMem=  2684354560 cpu:         0.1
 (Enter /soft/gaussian/09-e.01/g09/l202.exe)
 ---------------------------------------------------------------------------------------------------
                            Z-MATRIX (ANGSTROMS AND DEGREES)
   CD    Cent   Atom    N1       Length/X        N2       Alpha/Y        N3        Beta/Z          J
 ---------------------------------------------------------------------------------------------------
      1      1  O 
      2      2  O        1   1.457622(     1)
      3      3  H        1   0.973682(     2)      2   99.593(     4)
      4      4  H        2   0.973682(     3)      1   99.593(     5)      3  118.226(     6)      0
 ---------------------------------------------------------------------------------------------------
                         Z-Matrix orientation:                         
 ---------------------------------------------------------------------
 Center     Atomic      Atomic             Coordinates (Angstroms)
 Number     Number       Type             X           Y           Z
 ---------------------------------------------------------------------
      1          8           0        0.000000    0.000000    0.000000
      2          8           0        0.000000    0.000000    1.457622
      3          1           0        0.960066    0.000000   -0.162264
      4          1           0       -0.454066    0.845903    1.619886
 ---------------------------------------------------------------------
                    Distance matrix (angstroms):
                    1          2          3          4
     1  O    0.000000
     2  O    1.457622   0.000000
     3  H    0.973682   1.883018   0.000000
     4  H    1.883018   0.973682   2.427217   0.000000
 Stoichiometry    H2O2
 Framework group  C1[X(H2O2)]
 Deg. of freedom     6
 Full point group                 C1      NOp   1
 RotChk:  IX=3 Diff= 9.82D-02
 Largest Abelian subgroup         C1      NOp   1
 Largest concise Abelian subgroup C1      NOp   1
                         Standard orientation:                         
 ---------------------------------------------------------------------
 Center     Atomic      Atomic             Coordinates (Angstroms)
 Number     Number       Type             X           Y           Z
 ---------------------------------------------------------------------
      1          8           0        0.719237    0.117743   -0.054761
      2          8           0       -0.719237   -0.117743   -0.054761
      3          1           0        1.012477   -0.669131    0.438085
      4          1           0       -1.012477    0.669131    0.438085
 ---------------------------------------------------------------------
 Rotational constants (GHZ):    296.8202911     26.3504581     25.3187918
 Leave Link  202 at Tue Sep 10 12:24:56 2019, MaxMem=  2684354560 cpu:         0.1
 (Enter /soft/gaussian/09-e.01/g09/l301.exe)
 Standard basis: 6-31G(d) (6D, 7F)
 Ernie: Thresh=  0.10000D-02 Tol=  0.10000D-05 Strict=F.
 There are    34 symmetry adapted cartesian basis functions of A   symmetry.
 There are    34 symmetry adapted basis functions of A   symmetry.
    34 basis functions,    64 primitive gaussians,    34 cartesian basis functions
     9 alpha electrons        9 beta electrons
       nuclear repulsion energy        36.6447786167 Hartrees.
 IExCor=  402 DFT=T Ex+Corr=B3LYP ExCW=0 ScaHFX=  0.200000
 ScaDFX=  0.800000  0.720000  1.000000  0.810000 ScalE2=  1.000000  1.000000
 IRadAn=      5 IRanWt=     -1 IRanGd=            0 ICorTp=0 IEmpDi=  4
 NAtoms=    4 NActive=    4 NUniq=    4 SFac= 1.00D+00 NAtFMM=   60 NAOKFM=F Big=F
 Integral buffers will be    131072 words long.
 Raffenetti 2 integral format.
 Two-electron integral symmetry is turned on.
 Leave Link  301 at Tue Sep 10 12:24:57 2019, MaxMem=  2684354560 cpu:         0.4
 (Enter /soft/gaussian/09-e.01/g09/l302.exe)
 NPDir=0 NMtPBC=     1 NCelOv=     1 NCel=       1 NClECP=     1 NCelD=      1
         NCelK=      1 NCelE2=     1 NClLst=     1 CellRange=     0.0.
 One-electron integrals computed using PRISM.
 NBasis=    34 RedAO= T EigKep=  1.14D-02  NBF=    34
 NBsUse=    34 1.00D-06 EigRej= -1.00D+00 NBFU=    34
 Precomputing XC quadrature grid using
 IXCGrd= 4 IRadAn=           5 IRanWt=          -1 IRanGd=           0 AccXCQ= 0.00D+00.
 Generated NRdTot=       0 NPtTot=           0 NUsed=           0 NTot=          32
 NSgBfM=    34    34    34    34    34 MxSgAt=     4 MxSgA2=     4.
 Leave Link  302 at Tue Sep 10 12:24:57 2019, MaxMem=  2684354560 cpu:         1.2
 (Enter /soft/gaussian/09-e.01/g09/l303.exe)
 DipDrv:  MaxL=1.
 Leave Link  303 at Tue Sep 10 12:24:57 2019, MaxMem=  2684354560 cpu:         0.2
 (Enter /soft/gaussian/09-e.01/g09/l401.exe)
 Initial guess from the checkpoint file:  "/blues/gpfs/home/elliott/Packages/PACC/moldriver/thermodriver/rundir/SPC/H2O2/MHAJPDPJQMAIIY/0/1/UHFFFAOYSA-N/ezvlpJR/RUN/OPTI/D00/Gau-7738.chk"
 B after Tr=    -0.000000    0.000000   -0.000000
         Rot=    0.999992   -0.000000    0.000000   -0.003890 Ang=  -0.45 deg.
 Guess basis will be translated and rotated to current coordinates.
 JPrj=2 DoOrth=T DoCkMO=T.
 Generating alternative initial guess.
 ExpMin= 1.61D-01 ExpMax= 5.48D+03 ExpMxC= 8.25D+02 IAcc=2 IRadAn=         4 AccDes= 0.00D+00
 Harris functional with IExCor=  402 and IRadAn=       4 diagonalized for initial guess.
 HarFok:  IExCor=  402 AccDes= 0.00D+00 IRadAn=         4 IDoV= 1 UseB2=F ITyADJ=14
 ICtDFT=  3500011 ScaDFX=  1.000000  1.000000  1.000000  1.000000
 FoFCou: FMM=F IPFlag=           0 FMFlag=      100000 FMFlg1=           0
         NFxFlg=           0 DoJE=T BraDBF=F KetDBF=T FulRan=T
         wScrn=  0.000000 ICntrl=     500 IOpCl=  0 I1Cent=   200000004 NGrid=           0
         NMat0=    1 NMatS0=      1 NMatT0=    0 NMatD0=    1 NMtDS0=    0 NMtDT0=    0
 Petite list used in FoFCou.
 Harris En= -151.553530956009    
 Leave Link  401 at Tue Sep 10 12:24:57 2019, MaxMem=  2684354560 cpu:         1.8
 (Enter /soft/gaussian/09-e.01/g09/l502.exe)
 Closed shell SCF:
 Using DIIS extrapolation, IDIIS=  1040.
 Integral symmetry usage will be decided dynamically.
 Keep R1 ints in memory in canonical form, NReq=1049956.
 IVT=       10008 IEndB=       10008 NGot=  2684354560 MDV=  2684167243
 LenX=  2684167243 LenY=  2684165646
 Requested convergence on RMS density matrix=1.00D-08 within  64 cycles.
 Requested convergence on MAX density matrix=1.00D-06.
 Requested convergence on             energy=1.00D-06.
 No special actions if energy rises.
 FoFCou: FMM=F IPFlag=           0 FMFlag=           0 FMFlg1=           0
         NFxFlg=           0 DoJE=F BraDBF=F KetDBF=F FulRan=T
         wScrn=  0.000000 ICntrl=     600 IOpCl=  0 I1Cent=           0 NGrid=           0
         NMat0=    1 NMatS0=    595 NMatT0=    0 NMatD0=    1 NMtDS0=    0 NMtDT0=    0
 Symmetry not used in FoFCou.
 Integral accuracy reduced to 1.0D-05 until final iterations.

 Cycle   1  Pass 0  IDiag  1:
 E= -151.532048113431    
 DIIS: error= 4.01D-03 at cycle   1 NSaved=   1.
 NSaved= 1 IEnMin= 1 EnMin= -151.532048113431     IErMin= 1 ErrMin= 4.01D-03
 ErrMax= 4.01D-03  0.00D+00 EMaxC= 1.00D-01 BMatC= 7.14D-04 BMatP= 7.14D-04
 IDIUse=3 WtCom= 9.60D-01 WtEn= 4.01D-02
 Coeff-Com:  0.100D+01
 Coeff-En:   0.100D+01
 Coeff:      0.100D+01
 Gap=     1.683 Goal=   None    Shift=    0.000
 GapD=    1.683 DampG=2.000 DampE=1.000 DampFc=2.0000 IDamp=-1.
 RMSDP=1.34D-03 MaxDP=1.09D-02              OVMax= 1.47D-02

 Cycle   2  Pass 0  IDiag  1:
 E= -151.533194617557     Delta-E=       -0.001146504126 Rises=F Damp=F
 DIIS: error= 4.54D-04 at cycle   2 NSaved=   2.
 NSaved= 2 IEnMin= 2 EnMin= -151.533194617557     IErMin= 2 ErrMin= 4.54D-04
 ErrMax= 4.54D-04  0.00D+00 EMaxC= 1.00D-01 BMatC= 8.78D-06 BMatP= 7.14D-04
 IDIUse=3 WtCom= 9.95D-01 WtEn= 4.54D-03
 Coeff-Com: -0.442D-01 0.104D+01
 Coeff-En:   0.000D+00 0.100D+01
 Coeff:     -0.440D-01 0.104D+01
 Gap=     0.293 Goal=   None    Shift=    0.000
 RMSDP=2.12D-04 MaxDP=1.44D-03 DE=-1.15D-03 OVMax= 2.70D-03

 Cycle   3  Pass 0  IDiag  1:
 E= -151.533211732259     Delta-E=       -0.000017114703 Rises=F Damp=F
 DIIS: error= 2.05D-04 at cycle   3 NSaved=   3.
 NSaved= 3 IEnMin= 3 EnMin= -151.533211732259     IErMin= 3 ErrMin= 2.05D-04
 ErrMax= 2.05D-04  0.00D+00 EMaxC= 1.00D-01 BMatC= 1.68D-06 BMatP= 8.78D-06
 IDIUse=3 WtCom= 9.98D-01 WtEn= 2.05D-03
 Coeff-Com: -0.277D-01 0.297D+00 0.731D+00
 Coeff-En:   0.000D+00 0.000D+00 0.100D+01
 Coeff:     -0.277D-01 0.296D+00 0.732D+00
 Gap=     0.293 Goal=   None    Shift=    0.000
 RMSDP=3.44D-05 MaxDP=2.59D-04 DE=-1.71D-05 OVMax= 3.57D-04

 Cycle   4  Pass 0  IDiag  1:
 E= -151.533212974753     Delta-E=       -0.000001242494 Rises=F Damp=F
 DIIS: error= 5.66D-05 at cycle   4 NSaved=   4.
 NSaved= 4 IEnMin= 4 EnMin= -151.533212974753     IErMin= 4 ErrMin= 5.66D-05
 ErrMax= 5.66D-05  0.00D+00 EMaxC= 1.00D-01 BMatC= 1.93D-07 BMatP= 1.68D-06
 IDIUse=1 WtCom= 1.00D+00 WtEn= 0.00D+00
 Coeff-Com: -0.835D-02 0.645D-01 0.286D+00 0.658D+00
 Coeff:     -0.835D-02 0.645D-01 0.286D+00 0.658D+00
 Gap=     0.293 Goal=   None    Shift=    0.000
 RMSDP=1.33D-05 MaxDP=1.25D-04 DE=-1.24D-06 OVMax= 1.64D-04

 Cycle   5  Pass 0  IDiag  1:
 E= -151.533213121163     Delta-E=       -0.000000146410 Rises=F Damp=F
 DIIS: error= 1.98D-05 at cycle   5 NSaved=   5.
 NSaved= 5 IEnMin= 5 EnMin= -151.533213121163     IErMin= 5 ErrMin= 1.98D-05
 ErrMax= 1.98D-05  0.00D+00 EMaxC= 1.00D-01 BMatC= 2.02D-08 BMatP= 1.93D-07
 IDIUse=1 WtCom= 1.00D+00 WtEn= 0.00D+00
 Coeff-Com:  0.155D-02-0.235D-01-0.110D-01 0.249D+00 0.784D+00
 Coeff:      0.155D-02-0.235D-01-0.110D-01 0.249D+00 0.784D+00
 Gap=     0.293 Goal=   None    Shift=    0.000
 RMSDP=4.34D-06 MaxDP=3.66D-05 DE=-1.46D-07 OVMax= 4.76D-05

 Initial convergence to 1.0D-05 achieved.  Increase integral accuracy.
 Cycle   6  Pass 1  IDiag  1:
 E= -151.533211558953     Delta-E=        0.000001562210 Rises=F Damp=F
 DIIS: error= 2.47D-06 at cycle   1 NSaved=   1.
 NSaved= 1 IEnMin= 1 EnMin= -151.533211558953     IErMin= 1 ErrMin= 2.47D-06
 ErrMax= 2.47D-06  0.00D+00 EMaxC= 1.00D-01 BMatC= 2.03D-10 BMatP= 2.03D-10
 IDIUse=1 WtCom= 1.00D+00 WtEn= 0.00D+00
 Coeff-Com:  0.100D+01
 Coeff:      0.100D+01
 Gap=     0.293 Goal=   None    Shift=    0.000
 RMSDP=4.34D-06 MaxDP=3.66D-05 DE= 1.56D-06 OVMax= 6.69D-06

 Cycle   7  Pass 1  IDiag  1:
 E= -151.533211559149     Delta-E=       -0.000000000196 Rises=F Damp=F
 DIIS: error= 5.78D-07 at cycle   2 NSaved=   2.
 NSaved= 2 IEnMin= 2 EnMin= -151.533211559149     IErMin= 2 ErrMin= 5.78D-07
 ErrMax= 5.78D-07  0.00D+00 EMaxC= 1.00D-01 BMatC= 2.01D-11 BMatP= 2.03D-10
 IDIUse=1 WtCom= 1.00D+00 WtEn= 0.00D+00
 Coeff-Com:  0.178D+00 0.822D+00
 Coeff:      0.178D+00 0.822D+00
 Gap=     0.293 Goal=   None    Shift=    0.000
 RMSDP=1.70D-07 MaxDP=1.54D-06 DE=-1.96D-10 OVMax= 2.46D-06

 Cycle   8  Pass 1  IDiag  1:
 E= -151.533211559159     Delta-E=       -0.000000000010 Rises=F Damp=F
 DIIS: error= 4.98D-07 at cycle   3 NSaved=   3.
 NSaved= 3 IEnMin= 3 EnMin= -151.533211559159     IErMin= 3 ErrMin= 4.98D-07
 ErrMax= 4.98D-07  0.00D+00 EMaxC= 1.00D-01 BMatC= 1.39D-11 BMatP= 2.01D-11
 IDIUse=1 WtCom= 1.00D+00 WtEn= 0.00D+00
 Coeff-Com:  0.448D-01 0.462D+00 0.493D+00
 Coeff:      0.448D-01 0.462D+00 0.493D+00
 Gap=     0.293 Goal=   None    Shift=    0.000
 RMSDP=9.20D-08 MaxDP=1.02D-06 DE=-9.58D-12 OVMax= 1.23D-06

 Cycle   9  Pass 1  IDiag  1:
 E= -151.533211559167     Delta-E=       -0.000000000008 Rises=F Damp=F
 DIIS: error= 2.12D-07 at cycle   4 NSaved=   4.
 NSaved= 4 IEnMin= 4 EnMin= -151.533211559167     IErMin= 4 ErrMin= 2.12D-07
 ErrMax= 2.12D-07  0.00D+00 EMaxC= 1.00D-01 BMatC= 2.67D-12 BMatP= 1.39D-11
 IDIUse=1 WtCom= 1.00D+00 WtEn= 0.00D+00
 Coeff-Com: -0.182D-01 0.112D+00 0.324D+00 0.582D+00
 Coeff:     -0.182D-01 0.112D+00 0.324D+00 0.582D+00
 Gap=     0.293 Goal=   None    Shift=    0.000
 RMSDP=3.11D-08 MaxDP=3.20D-07 DE=-8.47D-12 OVMax= 3.81D-07

 Cycle  10  Pass 1  IDiag  1:
 E= -151.533211559169     Delta-E=       -0.000000000002 Rises=F Damp=F
 DIIS: error= 1.35D-08 at cycle   5 NSaved=   5.
 NSaved= 5 IEnMin= 5 EnMin= -151.533211559169     IErMin= 5 ErrMin= 1.35D-08
 ErrMax= 1.35D-08  0.00D+00 EMaxC= 1.00D-01 BMatC= 6.45D-15 BMatP= 2.67D-12
 IDIUse=1 WtCom= 1.00D+00 WtEn= 0.00D+00
 Coeff-Com: -0.748D-03-0.150D-01-0.437D-01-0.639D-01 0.112D+01
[...]
 (Enter /soft/gaussian/09-e.01/g09/l302.exe)
 NPDir=0 NMtPBC=     1 NCelOv=     1 NCel=       1 NClECP=     1 NCelD=      1
         NCelK=      1 NCelE2=     1 NClLst=     1 CellRange=     0.0.
 One-electron integrals computed using PRISM.
 NBasis=    34 RedAO= T EigKep=  1.13D-02  NBF=    34
 NBsUse=    34 1.00D-06 EigRej= -1.00D+00 NBFU=    34
 Precomputing XC quadrature grid using
 IXCGrd= 4 IRadAn=           5 IRanWt=          -1 IRanGd=           0 AccXCQ= 0.00D+00.
 Generated NRdTot=       0 NPtTot=           0 NUsed=           0 NTot=          32
 NSgBfM=    34    34    34    34    34 MxSgAt=     4 MxSgA2=     4.
 Leave Link  302 at Tue Sep 10 12:24:58 2019, MaxMem=  2684354560 cpu:         1.4
 (Enter /soft/gaussian/09-e.01/g09/l303.exe)
 DipDrv:  MaxL=1.
 Leave Link  303 at Tue Sep 10 12:24:58 2019, MaxMem=  2684354560 cpu:         0.1
 (Enter /soft/gaussian/09-e.01/g09/l401.exe)
 Initial guess from the checkpoint file:  "/blues/gpfs/home/elliott/Packages/PACC/moldriver/thermodriver/rundir/SPC/H2O2/MHAJPDPJQMAIIY/0/1/UHFFFAOYSA-N/ezvlpJR/RUN/OPTI/D00/Gau-7738.chk"
 B after Tr=    -0.000000   -0.000000   -0.000000
         Rot=    1.000000    0.000000   -0.000000   -0.000234 Ang=   0.03 deg.
 Guess basis will be translated and rotated to current coordinates.
 JPrj=2 DoOrth=T DoCkMO=T.
 Leave Link  401 at Tue Sep 10 12:24:58 2019, MaxMem=  2684354560 cpu:         0.5
 (Enter /soft/gaussian/09-e.01/g09/l502.exe)
 Closed shell SCF:
 Using DIIS extrapolation, IDIIS=  1040.
 Integral symmetry usage will be decided dynamically.
 Keep R1 ints in memory in canonical form, NReq=1049956.
 IVT=       10008 IEndB=       10008 NGot=  2684354560 MDV=  2684167243
 LenX=  2684167243 LenY=  2684165646
 Requested convergence on RMS density matrix=1.00D-08 within  64 cycles.
 Requested convergence on MAX density matrix=1.00D-06.
 Requested convergence on             energy=1.00D-06.
 No special actions if energy rises.
 FoFCou: FMM=F IPFlag=           0 FMFlag=           0 FMFlg1=           0
         NFxFlg=           0 DoJE=F BraDBF=F KetDBF=F FulRan=T
         wScrn=  0.000000 ICntrl=     600 IOpCl=  0 I1Cent=           0 NGrid=           0
         NMat0=    1 NMatS0=    595 NMatT0=    0 NMatD0=    1 NMtDS0=    0 NMtDT0=    0
 Symmetry not used in FoFCou.

 Cycle   1  Pass 1  IDiag  1:
 E= -151.533208441459    
 DIIS: error= 2.57D-04 at cycle   1 NSaved=   1.
 NSaved= 1 IEnMin= 1 EnMin= -151.533208441459     IErMin= 1 ErrMin= 2.57D-04
 ErrMax= 2.57D-04  0.00D+00 EMaxC= 1.00D-01 BMatC= 3.16D-06 BMatP= 3.16D-06
 IDIUse=3 WtCom= 9.97D-01 WtEn= 2.57D-03
 Coeff-Com:  0.100D+01
 Coeff-En:   0.100D+01
 Coeff:      0.100D+01
 Gap=     1.682 Goal=   None    Shift=    0.000
 RMSDP=8.82D-05 MaxDP=7.01D-04              OVMax= 8.40D-04

 Cycle   2  Pass 1  IDiag  1:
 E= -151.533213506160     Delta-E=       -0.000005064702 Rises=F Damp=F
 DIIS: error= 2.55D-05 at cycle   2 NSaved=   2.
 NSaved= 2 IEnMin= 2 EnMin= -151.533213506160     IErMin= 2 ErrMin= 2.55D-05
 ErrMax= 2.55D-05  0.00D+00 EMaxC= 1.00D-01 BMatC= 3.85D-08 BMatP= 3.16D-06
 IDIUse=1 WtCom= 1.00D+00 WtEn= 0.00D+00
 Coeff-Com: -0.530D-01 0.105D+01
 Coeff:     -0.530D-01 0.105D+01
 Gap=     0.294 Goal=   None    Shift=    0.000
 RMSDP=1.38D-05 MaxDP=8.07D-05 DE=-5.06D-06 OVMax= 1.57D-04

 Cycle   3  Pass 1  IDiag  1:
 E= -151.533213568130     Delta-E=       -0.000000061970 Rises=F Damp=F
 DIIS: error= 1.60D-05 at cycle   3 NSaved=   3.
 NSaved= 3 IEnMin= 3 EnMin= -151.533213568130     IErMin= 3 ErrMin= 1.60D-05
 ErrMax= 1.60D-05  0.00D+00 EMaxC= 1.00D-01 BMatC= 1.51D-08 BMatP= 3.85D-08
 IDIUse=1 WtCom= 1.00D+00 WtEn= 0.00D+00
 Coeff-Com: -0.331D-01 0.421D+00 0.612D+00
 Coeff:     -0.331D-01 0.421D+00 0.612D+00
 Gap=     0.294 Goal=   None    Shift=    0.000
 RMSDP=3.28D-06 MaxDP=3.07D-05 DE=-6.20D-08 OVMax= 3.22D-05

 Cycle   4  Pass 1  IDiag  1:
 E= -151.533213578716     Delta-E=       -0.000000010586 Rises=F Damp=F
 DIIS: error= 4.78D-06 at cycle   4 NSaved=   4.
 NSaved= 4 IEnMin= 4 EnMin= -151.533213578716     IErMin= 4 ErrMin= 4.78D-06
 ErrMax= 4.78D-06  0.00D+00 EMaxC= 1.00D-01 BMatC= 1.27D-09 BMatP= 1.51D-08
 IDIUse=1 WtCom= 1.00D+00 WtEn= 0.00D+00
 Coeff-Com: -0.917D-02 0.819D-01 0.252D+00 0.675D+00
 Coeff:     -0.917D-02 0.819D-01 0.252D+00 0.675D+00
 Gap=     0.294 Goal=   None    Shift=    0.000
 RMSDP=8.95D-07 MaxDP=8.21D-06 DE=-1.06D-08 OVMax= 9.93D-06

 Cycle   5  Pass 1  IDiag  1:
 E= -151.533213579703     Delta-E=       -0.000000000987 Rises=F Damp=F
 DIIS: error= 9.68D-07 at cycle   5 NSaved=   5.
 NSaved= 5 IEnMin= 5 EnMin= -151.533213579703     IErMin= 5 ErrMin= 9.68D-07
 ErrMax= 9.68D-07  0.00D+00 EMaxC= 1.00D-01 BMatC= 2.84D-11 BMatP= 1.27D-09
 IDIUse=1 WtCom= 1.00D+00 WtEn= 0.00D+00
 Coeff-Com:  0.132D-02-0.215D-01-0.586D-02 0.128D+00 0.898D+00
 Coeff:      0.132D-02-0.215D-01-0.586D-02 0.128D+00 0.898D+00
 Gap=     0.294 Goal=   None    Shift=    0.000
 RMSDP=2.43D-07 MaxDP=2.04D-06 DE=-9.87D-10 OVMax= 3.20D-06

 Cycle   6  Pass 1  IDiag  1:
 E= -151.533213579733     Delta-E=       -0.000000000030 Rises=F Damp=F
 DIIS: error= 7.60D-08 at cycle   6 NSaved=   6.
 NSaved= 6 IEnMin= 6 EnMin= -151.533213579733     IErMin= 6 ErrMin= 7.60D-08
 ErrMax= 7.60D-08  0.00D+00 EMaxC= 1.00D-01 BMatC= 1.86D-13 BMatP= 2.84D-11
 IDIUse=1 WtCom= 1.00D+00 WtEn= 0.00D+00
 Coeff-Com:  0.291D-03-0.406D-02-0.244D-02 0.147D-01 0.135D+00 0.856D+00
 Coeff:      0.291D-03-0.406D-02-0.244D-02 0.147D-01 0.135D+00 0.856D+00
 Gap=     0.294 Goal=   None    Shift=    0.000
 RMSDP=1.84D-08 MaxDP=1.09D-07 DE=-3.04D-11 OVMax= 1.98D-07

 Cycle   7  Pass 1  IDiag  1:
 E= -151.533213579734     Delta-E=       -0.000000000000 Rises=F Damp=F
 DIIS: error= 1.49D-08 at cycle   7 NSaved=   7.
 NSaved= 7 IEnMin= 7 EnMin= -151.533213579734     IErMin= 7 ErrMin= 1.49D-08
 ErrMax= 1.49D-08  0.00D+00 EMaxC= 1.00D-01 BMatC= 1.04D-14 BMatP= 1.86D-13
 IDIUse=1 WtCom= 1.00D+00 WtEn= 0.00D+00
 Coeff-Com: -0.164D-04 0.291D-03-0.180D-03-0.388D-02-0.239D-01 0.144D+00
 Coeff-Com:  0.884D+00
 Coeff:     -0.164D-04 0.291D-03-0.180D-03-0.388D-02-0.239D-01 0.144D+00
 Coeff:      0.884D+00
 Gap=     0.294 Goal=   None    Shift=    0.000
 RMSDP=4.96D-09 MaxDP=2.77D-08 DE=-1.99D-13 OVMax= 9.35D-08

 SCF Done:  E(RB3LYP) =  -151.533213580     A.U. after    7 cycles
            NFock=  7  Conv=0.50D-08     -V/T= 2.0081
 KE= 1.503230323657D+02 PE=-4.315184383817D+02 EE= 9.299477876961D+01
 Leave Link  502 at Tue Sep 10 12:24:58 2019, MaxMem=  2684354560 cpu:         3.5
 (Enter /soft/gaussian/09-e.01/g09/l508.exe)
 QCSCF skips out because SCF is already converged.
 Leave Link  508 at Tue Sep 10 12:24:58 2019, MaxMem=  2684354560 cpu:         0.0
 (Enter /soft/gaussian/09-e.01/g09/l701.exe)
 Compute integral first derivatives.
 ... and contract with generalized density number  0.
 Leave Link  701 at Tue Sep 10 12:24:59 2019, MaxMem=  2684354560 cpu:         1.4
 (Enter /soft/gaussian/09-e.01/g09/l702.exe)
 L702 exits ... SP integral derivatives will be done elsewhere.
 Leave Link  702 at Tue Sep 10 12:24:59 2019, MaxMem=  2684354560 cpu:         0.1
 (Enter /soft/gaussian/09-e.01/g09/l703.exe)
 Compute integral first derivatives, UseDBF=F ICtDFT=           0.
 Integral derivatives from FoFJK, PRISM(SPDF).
 Calling FoFJK, ICntrl=      2127 FMM=F ISym2X=0 I1Cent= 0 IOpClX= 0 NMat=1 NMatS=1 NMatT=0.
 FoFJK:  IHMeth= 1 ICntrl=    2127 DoSepK=F KAlg= 0 I1Cent=   0 FoldK=F
 IRaf=         0 NMat=   1 IRICut=       1 DoRegI=T DoRafI=F ISym2E= 0.
 FoFCou: FMM=F IPFlag=           0 FMFlag=      100000 FMFlg1=         800
         NFxFlg=           0 DoJE=F BraDBF=F KetDBF=F FulRan=T
         wScrn=  0.000000 ICntrl=    2127 IOpCl=  0 I1Cent=           0 NGrid=           0
         NMat0=    1 NMatS0=      1 NMatT0=    0 NMatD0=    1 NMtDS0=    0 NMtDT0=    0
 Symmetry not used in FoFCou.
 Leave Link  703 at Tue Sep 10 12:24:59 2019, MaxMem=  2684354560 cpu:         1.9
 (Enter /soft/gaussian/09-e.01/g09/l716.exe)
 Dipole        =-6.36442810D-08-2.56873869D-08 6.99996732D-01
 ***** Axes restored to original set *****
 -------------------------------------------------------------------
 Center     Atomic                   Forces (Hartrees/Bohr)
 Number     Number              X              Y              Z
 -------------------------------------------------------------------
      1        8           0.000065478   -0.000030880    0.000251533
      2        8          -0.000058547    0.000042581   -0.000251533
      3        1          -0.000014329    0.000000584   -0.000049669
      4        1           0.000007398   -0.000012285    0.000049669
 -------------------------------------------------------------------
 Cartesian Forces:  Max     0.000251533 RMS     0.000108921
 -----------------------------------------------------------------------------------------------
                       Internal Coordinate Forces (Hartree/Bohr or radian)
  Cent   Atom   N1       Length/X         N2         Alpha/Y        N3         Beta/Z          J
 -----------------------------------------------------------------------------------------------
      1  O 
      2  O        1  -0.000202(     1)
      3  H        1  -0.000006(     2)      2   0.000095(     4)
      4  H        2  -0.000006(     3)      1   0.000095(     5)      3  -0.000001(     6)     0
 -----------------------------------------------------------------------------------------------
 Internal  Forces:  Max     0.000201864 RMS     0.000098896
 Leave Link  716 at Tue Sep 10 12:24:59 2019, MaxMem=  2684354560 cpu:         0.2
 (Enter /soft/gaussian/09-e.01/g09/l103.exe)

 GradGradGradGradGradGradGradGradGradGradGradGradGradGradGradGradGradGrad
 Berny optimization.
 Search for a local minimum.
 Step number   5 out of a maximum of   20
 All quantities printed in internal units (Hartrees-Bohrs-Radians)
 Update second derivatives using D2CorN and points    1    2    3    4    5

 DE= -2.02D-06 DEPred=-1.62D-06 R= 1.25D+00
 TightC=F SS=  1.41D+00  RLast= 9.10D-03 DXNew= 4.2426D-01 2.7298D-02
 Trust test= 1.25D+00 RLast= 9.10D-03 DXMaxT set to 2.52D-01
 The second derivative matrix:
                          R1        R2        A2        R3        A3
           R1           0.39038
           R2          -0.00252   0.52162
           A2           0.04430  -0.00189   0.20734
           R3          -0.00252   0.00007  -0.00189   0.52162
           A3           0.04430  -0.00189   0.04735  -0.00189   0.20735
           D3           0.01178   0.00206   0.00525   0.00206   0.00525
                          D3
           D3           0.00858
 ITU=  1  1 -1  0  0
     Eigenvalues ---    0.00807   0.16000   0.23020   0.41514   0.52155
     Eigenvalues ---    0.52191
 RFO step:  Lambda=-1.20520047D-07 EMin= 8.07472658D-03
 Quartic linear search produced a step of  0.23934.
 Variable       Old X    -DE/DX   Delta X   Delta X   Delta X     New X
                                 (Linear)    (Quad)   (Total)
    R1        2.75199  -0.00020  -0.00060  -0.00008  -0.00068   2.75131
    R2        1.83994  -0.00001  -0.00001   0.00001  -0.00001   1.83993
    A2        1.73904   0.00009   0.00020   0.00035   0.00054   1.73959
    R3        1.83994  -0.00001  -0.00001   0.00001  -0.00001   1.83993
    A3        1.73904   0.00009   0.00020   0.00035   0.00054   1.73959
    D3        2.07210  -0.00000   0.00207  -0.00301  -0.00094   2.07117
         Item               Value     Threshold  Converged?
 Maximum Force            0.000202     0.000450     YES
 RMS     Force            0.000099     0.000300     YES
 Maximum Displacement     0.000936     0.001800     YES
 RMS     Displacement     0.000567     0.001200     YES
 Predicted change in Energy=-1.023870D-07
 Optimization completed.
    -- Stationary point found.
                       ----------------------------
                       !   Optimized Parameters   !
                       ! (Angstroms and Degrees)  !
 ----------------------                            ----------------------
 !      Name          Value   Derivative information (Atomic Units)     !
 ------------------------------------------------------------------------
 !       R1          1.4563   -DE/DX =   -0.0002                        !
 !       R2          0.9737   -DE/DX =    0.0                           !
 !       A2         99.6398   -DE/DX =    0.0001                        !
 !       R3          0.9737   -DE/DX =    0.0                           !
 !       A3         99.6398   -DE/DX =    0.0001                        !
 !       D3        118.7227   -DE/DX =    0.0                           !
 ------------------------------------------------------------------------
 Lowest energy point so far.  Saving SCF results.
 GradGradGradGradGradGradGradGradGradGradGradGradGradGradGradGradGradGrad

 Largest change from initial coordinates is atom    4       0.091 Angstoms.
 Leave Link  103 at Tue Sep 10 12:24:59 2019, MaxMem=  2684354560 cpu:         0.1
 (Enter /soft/gaussian/09-e.01/g09/l202.exe)
 ---------------------------------------------------------------------------------------------------
                            Z-MATRIX (ANGSTROMS AND DEGREES)
   CD    Cent   Atom    N1       Length/X        N2       Alpha/Y        N3        Beta/Z          J
 ---------------------------------------------------------------------------------------------------
      1      1  O 
      2      2  O        1   1.456288(     1)
      3      3  H        1   0.973652(     2)      2   99.640(     4)
      4      4  H        2   0.973652(     3)      1   99.640(     5)      3  118.723(     6)      0
 ---------------------------------------------------------------------------------------------------
                         Z-Matrix orientation:                         
 ---------------------------------------------------------------------
 Center     Atomic      Atomic             Coordinates (Angstroms)
 Number     Number       Type             X           Y           Z
 ---------------------------------------------------------------------
      1          8           0        0.000000    0.000000    0.000000
      2          8           0        0.000000    0.000000    1.456288
      3          1           0        0.959904    0.000000   -0.163042
      4          1           0       -0.461302    0.841793    1.619330
 ---------------------------------------------------------------------
                    Distance matrix (angstroms):
                    1          2          3          4
     1  O    0.000000
     2  O    1.456288   0.000000
     3  H    0.973652   1.882457   0.000000
     4  H    1.882457   0.973652   2.430080   0.000000
 Stoichiometry    H2O2
 Framework group  C1[X(H2O2)]
 Deg. of freedom     6
 Full point group                 C1      NOp   1
 RotChk:  IX=0 Diff= 4.68D-16
 Largest Abelian subgroup         C1      NOp   1
 Largest concise Abelian subgroup C1      NOp   1
                         Standard orientation:                         
 ---------------------------------------------------------------------
 Center     Atomic      Atomic             Coordinates (Angstroms)
 Number     Number       Type             X           Y           Z
 ---------------------------------------------------------------------
      1          8           0        0.718489    0.118182   -0.054354
      2          8           0       -0.718489   -0.118182   -0.054354
      3          1           0        1.013417   -0.670304    0.434834
      4          1           0       -1.013417    0.670304    0.434834
 ---------------------------------------------------------------------
 Rotational constants (GHZ):    297.0134538     26.4008249     25.3493661
 Leave Link  202 at Tue Sep 10 12:24:59 2019, MaxMem=  2684354560 cpu:         0.1
 (Enter /soft/gaussian/09-e.01/g09/l601.exe)
 Copying SCF densities to generalized density rwf, IOpCl= 0 IROHF=0.

 **********************************************************************

            Population analysis using the SCF density.

 **********************************************************************

 Orbital symmetries:
       Occupied  (A) (A) (A) (A) (A) (A) (A) (A) (A)
       Virtual   (A) (A) (A) (A) (A) (A) (A) (A) (A) (A) (A) (A)
                 (A) (A) (A) (A) (A) (A) (A) (A) (A) (A) (A) (A)
                 (A)
 The electronic state is 1-A.
 Alpha  occ. eigenvalues --  -19.20279 -19.20271  -1.11048  -0.89406  -0.52258
 Alpha  occ. eigenvalues --   -0.48882  -0.41165  -0.31818  -0.26932
 Alpha virt. eigenvalues --    0.02433   0.06905   0.11579   0.77729   0.78025
 Alpha virt. eigenvalues --    0.81222   0.83895   0.92154   0.95583   0.98372
 Alpha virt. eigenvalues --    1.04487   1.18805   1.31848   1.51007   1.51418
 Alpha virt. eigenvalues --    1.68707   1.80081   1.96634   2.29122   2.32881
 Alpha virt. eigenvalues --    2.46375   2.47621   2.94557   3.43012   3.65181
          Condensed to atoms (all electrons):
               1          2          3          4
     1  O    8.136343   0.081900   0.222382  -0.023177
     2  O    0.081900   8.136343  -0.023177   0.222382
     3  H    0.222382  -0.023177   0.382021   0.001326
     4  H   -0.023177   0.222382   0.001326   0.382021
 Mulliken charges:
               1
     1  O   -0.417448
     2  O   -0.417448
     3  H    0.417448
     4  H    0.417448
 Sum of Mulliken charges =  -0.00000
 Mulliken charges with hydrogens summed into heavy atoms:
               1
     1  O   -0.000000
     2  O    0.000000
 Electronic spatial extent (au):  <R**2>=             66.0024
 Charge=              0.0000 electrons
 Dipole moment (field-independent basis, Debye):
    X=             -0.0000    Y=             -0.0000    Z=              1.7792  Tot=              1.7792
 Quadrupole moment (field-independent basis, Debye-Ang):
   XX=            -10.0757   YY=            -10.1741   ZZ=            -11.5540
   XY=             -3.1629   XZ=              0.0000   YZ=             -0.0000
 Traceless Quadrupole moment (field-independent basis, Debye-Ang):
   XX=              0.5255   YY=              0.4272   ZZ=             -0.9527
   XY=             -3.1629   XZ=              0.0000   YZ=             -0.0000
 Octapole moment (field-independent basis, Debye-Ang**2):
  XXX=              0.0000  YYY=             -0.0000  ZZZ=              1.0669  XYY=              0.0000
  XXY=             -0.0000  XXZ=              2.2903  XZZ=              0.0000  YZZ=             -0.0000
  YYZ=              0.8716  XYZ=             -1.3964
 Hexadecapole moment (field-independent basis, Debye-Ang**3):
 XXXX=            -41.5777 YYYY=            -10.3925 ZZZZ=             -9.5556 XXXY=             -3.9615
 XXXZ=              0.0000 YYYX=             -2.5735 YYYZ=             -0.0000 ZZZX=              0.0000
 ZZZY=             -0.0000 XXYY=             -8.2099 XXZZ=             -9.2282 YYZZ=             -3.1042
 XXYZ=             -0.0000 YYXZ=              0.0000 ZZXY=             -0.9649
 N-N= 3.666741366661D+01 E-N=-4.315184383997D+02  KE= 1.503230323657D+02
 No NMR shielding tensors so no spin-rotation constants.
 Leave Link  601 at Tue Sep 10 12:24:59 2019, MaxMem=  2684354560 cpu:         1.3
 (Enter /soft/gaussian/09-e.01/g09/l9999.exe)
 1\1\GINC-B444\FOpt\RB3LYP\6-31G(d)\H2O2\ELLIOTT\10-Sep-2019\1\\#P b3ly
 p/6-31g* # SCF=(xqc) # POpt=() # int=ultrafine\\comment:\\0,1\O\O,1,R1
 \H,1,R2,2,A2\H,2,R3,1,A3,3,D3,0\\R1=1.45628794\R2=0.97365188\A2=99.639
 82726\R3=0.97365188\A3=99.63982523\D3=118.72268867\\Version=ES64L-G09R
 evE.01\State=1-A\HF=-151.5332136\RMSD=4.960e-09\RMSF=1.089e-04\Dipole=
 0.3567338,0.6022761,0.\Quadrupole=0.6101663,-0.2457569,-0.3644094,-0.7
 809535,-1.9267455,1.1412293\PG=C01 [X(H2O2)]\\@


 WISDOM IS KNOWING WHAT TO DO,
 SKILL IS KNOWING HOW TO DO IT,
 AND VIRTUE IS NOT DOING IT.
 Job cpu time:       0 days  0 hours  1 minutes  2.6 seconds.
 File lengths (MBytes):  RWF=     72 Int=      0 D2E=      0 Chk=      2 Scr=      2
 Normal termination of Gaussian 09 at Tue Sep 10 12:24:59 2019.
