 Entering Gaussian System, Link 0=g09
 Input=run.inp
 Output=run.out
 Initial command:
 /soft/gaussian/09-e.01/g09/l1.exe "/blues/gpfs/home/elliott/Packages/PACC/moldriver/rcdriver/tmprundir/RXN/CH3.H2/MDUSDFXREFXETQ/0_0/2_1/UHFFFAOYSA-N/CH4.H/HXBDELFRWIQQII/0_0/1_2/UHFFFAOYSA-N/2/ezvlpJU/SCANS/R6/01/RUN/OPTI/A01/Gau-149739.inp" -scrdir="/blues/gpfs/home/elliott/Packages/PACC/moldriver/rcdriver/tmprundir/RXN/CH3.H2/MDUSDFXREFXETQ/0_0/2_1/UHFFFAOYSA-N/CH4.H/HXBDELFRWIQQII/0_0/1_2/UHFFFAOYSA-N/2/ezvlpJU/SCANS/R6/01/RUN/OPTI/A01/"
 Entering Link 1 = /soft/gaussian/09-e.01/g09/l1.exe PID=    149740.
  
 Copyright (c) 1988,1990,1992,1993,1995,1998,2003,2009,2015,
            Gaussian, Inc.  All Rights Reserved.
  
 This is part of the Gaussian(R) 09 program.  It is based on
 the Gaussian(R) 03 system (copyright 2003, Gaussian, Inc.),
 the Gaussian(R) 98 system (copyright 1998, Gaussian, Inc.),
 the Gaussian(R) 94 system (copyright 1995, Gaussian, Inc.),
 the Gaussian 92(TM) system (copyright 1992, Gaussian, Inc.),
 the Gaussian 90(TM) system (copyright 1990, Gaussian, Inc.),
 the Gaussian 88(TM) system (copyright 1988, Gaussian, Inc.),
 the Gaussian 86(TM) system (copyright 1986, Carnegie Mellon
 University), and the Gaussian 82(TM) system (copyright 1983,
 Carnegie Mellon University). Gaussian is a federally registered
 trademark of Gaussian, Inc.
  
 This software contains proprietary and confidential information,
 including trade secrets, belonging to Gaussian, Inc.
  
 This software is provided under written license and may be
 used, copied, transmitted, or stored only in accord with that
 written license.
  
 The following legend is applicable only to US Government
 contracts under FAR:
  
                    RESTRICTED RIGHTS LEGEND
  
 Use, reproduction and disclosure by the US Government is
 subject to restrictions as set forth in subparagraphs (a)
 and (c) of the Commercial Computer Software - Restricted
 Rights clause in FAR 52.227-19.
  
 Gaussian, Inc.
 340 Quinnipiac St., Bldg. 40, Wallingford CT 06492
  
  
 ---------------------------------------------------------------
 Warning -- This program may not be used in any manner that
 competes with the business of Gaussian, Inc. or will provide
 assistance to any competitor of Gaussian, Inc.  The licensee
 of this program is prohibited from giving any competitor of
 Gaussian, Inc. access to this program.  By using this program,
 the user acknowledges that Gaussian, Inc. is engaged in the
 business of creating and licensing software in the field of
 computational chemistry and represents and warrants to the
 licensee that it is not a competitor of Gaussian, Inc. and that
 it will not use this program in any manner prohibited above.
 ---------------------------------------------------------------
  

 Cite this work as:
 Gaussian 09, Revision E.01,
 M. J. Frisch, G. W. Trucks, H. B. Schlegel, G. E. Scuseria, 
 M. A. Robb, J. R. Cheeseman, G. Scalmani, V. Barone, B. Mennucci, 
 G. A. Petersson, H. Nakatsuji, M. Caricato, X. Li, H. P. Hratchian, 
 A. F. Izmaylov, J. Bloino, G. Zheng, J. L. Sonnenberg, M. Hada, 
 M. Ehara, K. Toyota, R. Fukuda, J. Hasegawa, M. Ishida, T. Nakajima, 
 Y. Honda, O. Kitao, H. Nakai, T. Vreven, J. A. Montgomery, Jr., 
 J. E. Peralta, F. Ogliaro, M. Bearpark, J. J. Heyd, E. Brothers, 
 K. N. Kudin, V. N. Staroverov, T. Keith, R. Kobayashi, J. Normand, 
 K. Raghavachari, A. Rendell, J. C. Burant, S. S. Iyengar, J. Tomasi, 
 M. Cossi, N. Rega, J. M. Millam, M. Klene, J. E. Knox, J. B. Cross, 
 V. Bakken, C. Adamo, J. Jaramillo, R. Gomperts, R. E. Stratmann, 
 O. Yazyev, A. J. Austin, R. Cammi, C. Pomelli, J. W. Ochterski, 
 R. L. Martin, K. Morokuma, V. G. Zakrzewski, G. A. Voth, 
 P. Salvador, J. J. Dannenberg, S. Dapprich, A. D. Daniels, 
 O. Farkas, J. B. Foresman, J. V. Ortiz, J. Cioslowski, 
 and D. J. Fox, Gaussian, Inc., Wallingford CT, 2013.
 
 ******************************************
 Gaussian 09:  ES64L-G09RevE.01 30-Nov-2015
                 5-Sep-2019 
 ******************************************
 %mem=20GB
 %NProcShared=10
 Will use up to   10 processors via shared memory.
 -----------------------------------------------------
 #P b3lyp/6-31g* # SCF=(xqc) # POpt=() # int=ultrafine
 -----------------------------------------------------
 1/10=7,14=-1,26=4,38=1/1,3;
 2/12=2,17=6,18=5,29=3,40=1/2;
 3/5=1,6=6,7=1,11=2,16=1,25=1,30=1,71=1,74=-5,75=-5/1,2,3;
 4//1;
 5/5=2,8=3,13=1,38=5/2,8;
 6/7=2,8=2,9=2,10=2,28=1/1;
 7/29=1/1,2,3,16;
 1/10=7,14=-1,26=4/3(2);
 2/29=3/2;
 99//99;
 2/29=3/2;
 3/5=1,6=6,7=1,11=2,16=1,25=1,30=1,71=1,74=-5,75=-5/1,2,3;
 4/5=5,16=3,69=1/1;
 5/5=2,8=3,13=1,38=5/2,8;
 7//1,2,3,16;
 1/14=-1,26=4/3(-5);
 2/29=3/2;
 6/7=2,8=2,9=2,10=2,19=2,28=1/1;
 99/9=1/99;
 Leave Link    1 at Thu Sep  5 23:05:09 2019, MaxMem=  2684354560 cpu:         0.9
 (Enter /soft/gaussian/09-e.01/g09/l101.exe)
 --------
 comment:
 --------
 Symbolic Z-matrix:
 Charge =  0 Multiplicity = 2
 C
 H                    1    R1
 H                    1    R2       2    A2
 H                    1    R3       2    A3       3    D3       0
 H                    1    R4       2    A4       3    D4       0
 X                    5    R5       1    A5       2    D5       0
 H                    5    R6       6    A6       1    D6       0
       Variables:
  R1                    1.07                     
  R2                    1.0968                   
  A2                  119.2149                   
  R3                    1.096                    
  A3                  119.2141                   
  D3                  190.3892                   
  R4                    2.642                    
  A4                   87.225                    
  D4                  277.099                    
  A6                  114.0563                   
  D6                  179.9189                   
       Constants:
  A5                   90.                       
  D5                  180.                       
  R5                    1.                       
  R6                    0.8829                   
 
 NAtoms=      6 NQM=        6 NQMF=       0 NMMI=      0 NMMIF=      0
                NMic=       0 NMicF=      0.
                    Isotopes and Nuclear Properties:
 (Nuclear quadrupole moments (NQMom) in fm**2, nuclear magnetic moments (NMagM)
  in nuclear magnetons)

  Atom         1           2           3           4           5           6
 IAtWgt=          12           1           1           1           1           1
 AtmWgt=  12.0000000   1.0078250   1.0078250   1.0078250   1.0078250   1.0078250
 NucSpn=           0           1           1           1           1           1
 AtZEff=   0.0000000   0.0000000   0.0000000   0.0000000   0.0000000   0.0000000
 NQMom=    0.0000000   0.0000000   0.0000000   0.0000000   0.0000000   0.0000000
 NMagM=    0.0000000   2.7928460   2.7928460   2.7928460   2.7928460   2.7928460
 AtZNuc=   6.0000000   1.0000000   1.0000000   1.0000000   1.0000000   1.0000000
 Leave Link  101 at Thu Sep  5 23:05:09 2019, MaxMem=  2684354560 cpu:         0.7
 (Enter /soft/gaussian/09-e.01/g09/l103.exe)

 GradGradGradGradGradGradGradGradGradGradGradGradGradGradGradGradGradGrad
 Berny optimization.
 Initialization pass.
                       ----------------------------
                       !    Initial Parameters    !
                       ! (Angstroms and Degrees)  !
 ----------------------                            ----------------------
 !      Name          Value   Derivative information (Atomic Units)     !
 ------------------------------------------------------------------------
 !       R1          1.07     estimate D2E/DX2                          !
 !       R2          1.0968   estimate D2E/DX2                          !
 !       A2        119.2149   estimate D2E/DX2                          !
 !       R3          1.096    estimate D2E/DX2                          !
 !       A3        119.2141   estimate D2E/DX2                          !
 !       D3        190.3892   estimate D2E/DX2                          !
 !       R4          2.642    estimate D2E/DX2                          !
 !       A4         87.225    estimate D2E/DX2                          !
 !       D4        277.099    estimate D2E/DX2                          !
 !       A6        114.0563   estimate D2E/DX2                          !
 !       D6        179.9189   estimate D2E/DX2                          !
 !       A5         90.0      Frozen                                    !
 !       D5        180.0      Frozen                                    !
 !       R5          1.0      Frozen                                    !
 !       R6          0.8829   Frozen                                    !
 ------------------------------------------------------------------------
 Trust Radius=3.00D-01 FncErr=1.00D-07 GrdErr=1.00D-06
 Number of steps in this run=     25 maximum allowed number of steps=    100.
 GradGradGradGradGradGradGradGradGradGradGradGradGradGradGradGradGradGrad

 Leave Link  103 at Thu Sep  5 23:05:09 2019, MaxMem=  2684354560 cpu:         0.2
 (Enter /soft/gaussian/09-e.01/g09/l202.exe)
 ---------------------------------------------------------------------------------------------------
                            Z-MATRIX (ANGSTROMS AND DEGREES)
   CD    Cent   Atom    N1       Length/X        N2       Alpha/Y        N3        Beta/Z          J
 ---------------------------------------------------------------------------------------------------
      1      1  C 
      2      2  H        1   1.070000(     1)
      3      3  H        1   1.096800(     2)      2  119.215(     7)
      4      4  H        1   1.096000(     3)      2  119.214(     8)      3  190.389(    12)      0
      5      5  H        1   2.642000(     4)      2   87.225(     9)      3  277.099(    13)      0
      6         X        5   1.000000(     5)      1   90.000(    10)      2  180.000(    14)      0
      7      6  H        5   0.882900(     6)      6  114.056(    11)      1  179.919(    15)      0
 ---------------------------------------------------------------------------------------------------
                         Z-Matrix orientation:                         
 ---------------------------------------------------------------------
 Center     Atomic      Atomic             Coordinates (Angstroms)
 Number     Number       Type             X           Y           Z
 ---------------------------------------------------------------------
      1          6           0        0.000000    0.000000    0.000000
      2          1           0        0.000000    0.000000    1.070000
      3          1           0        0.957282    0.000000   -0.535333
      4          1           0       -0.940908    0.172506   -0.534930
      5          1           0        0.326126    2.618672    0.127910
      6         -1           0        0.332110    2.666715   -0.870918
      7          1           0        0.424624    3.400337    0.526420
 ---------------------------------------------------------------------
                    Distance matrix (angstroms):
                    1          2          3          4          5
     1  C    0.000000
     2  H    1.070000   0.000000
     3  H    1.096800   1.869086   0.000000
     4  H    1.096000   1.868386   1.906012   0.000000
     5  H    2.642000   2.802024   2.774111   2.833454   0.000000
     6  X    2.824918   3.314940   2.759498   2.820380   1.000000
     7  H    3.466946   3.469594   3.601852   3.661972   0.882900
                    6          7
     6  X    0.000000
     7  H    1.580921   0.000000
 Stoichiometry    CH5(2)
 Framework group  C1[X(CH5)]
 Deg. of freedom    12
 Full point group                 C1      NOp   1
 Largest Abelian subgroup         C1      NOp   1
 Largest concise Abelian subgroup C1      NOp   1
                         Standard orientation:                         
 ---------------------------------------------------------------------
 Center     Atomic      Atomic             Coordinates (Angstroms)
 Number     Number       Type             X           Y           Z
 ---------------------------------------------------------------------
      1          6           0        0.570156    0.002016    0.011594
      2          1           0        0.437444   -0.101197    1.068304
      3          1           0        0.514549    0.999994   -0.439980
      4          1           0        0.586665   -0.896526   -0.615754
      5          1           0       -2.064203    0.008637   -0.189089
      6          1           0       -2.895389   -0.023007    0.106954
 ---------------------------------------------------------------------
 Rotational constants (GHZ):    140.1844015     27.2429132     27.1659499
 Leave Link  202 at Thu Sep  5 23:05:09 2019, MaxMem=  2684354560 cpu:         0.2
 (Enter /soft/gaussian/09-e.01/g09/l301.exe)
 Standard basis: 6-31G(d) (6D, 7F)
 Ernie: Thresh=  0.10000D-02 Tol=  0.10000D-05 Strict=F.
 There are    25 symmetry adapted cartesian basis functions of A   symmetry.
 There are    25 symmetry adapted basis functions of A   symmetry.
    25 basis functions,    48 primitive gaussians,    25 cartesian basis functions
     6 alpha electrons        5 beta electrons
       nuclear repulsion energy        13.3303817512 Hartrees.
 IExCor=  402 DFT=T Ex+Corr=B3LYP ExCW=0 ScaHFX=  0.200000
 ScaDFX=  0.800000  0.720000  1.000000  0.810000 ScalE2=  1.000000  1.000000
 IRadAn=      5 IRanWt=     -1 IRanGd=            0 ICorTp=0 IEmpDi=  4
 NAtoms=    6 NActive=    6 NUniq=    6 SFac= 1.00D+00 NAtFMM=   60 NAOKFM=F Big=F
 Integral buffers will be    131072 words long.
 Raffenetti 2 integral format.
 Two-electron integral symmetry is turned on.
 Leave Link  301 at Thu Sep  5 23:05:09 2019, MaxMem=  2684354560 cpu:         0.7
 (Enter /soft/gaussian/09-e.01/g09/l302.exe)
 NPDir=0 NMtPBC=     1 NCelOv=     1 NCel=       1 NClECP=     1 NCelD=      1
         NCelK=      1 NCelE2=     1 NClLst=     1 CellRange=     0.0.
 One-electron integrals computed using PRISM.
 NBasis=    25 RedAO= T EigKep=  2.67D-02  NBF=    25
 NBsUse=    25 1.00D-06 EigRej= -1.00D+00 NBFU=    25
 Precomputing XC quadrature grid using
 IXCGrd= 4 IRadAn=           5 IRanWt=          -1 IRanGd=           0 AccXCQ= 0.00D+00.
 Generated NRdTot=       0 NPtTot=           0 NUsed=           0 NTot=          32
 NSgBfM=    25    25    25    25    25 MxSgAt=     6 MxSgA2=     6.
 Leave Link  302 at Thu Sep  5 23:05:09 2019, MaxMem=  2684354560 cpu:         1.7
 (Enter /soft/gaussian/09-e.01/g09/l303.exe)
 DipDrv:  MaxL=1.
 Leave Link  303 at Thu Sep  5 23:05:09 2019, MaxMem=  2684354560 cpu:         0.2
 (Enter /soft/gaussian/09-e.01/g09/l401.exe)
 ExpMin= 1.61D-01 ExpMax= 3.05D+03 ExpMxC= 4.57D+02 IAcc=3 IRadAn=         5 AccDes= 0.00D+00
 Harris functional with IExCor=  402 and IRadAn=       5 diagonalized for initial guess.
 HarFok:  IExCor=  402 AccDes= 0.00D+00 IRadAn=         5 IDoV= 1 UseB2=F ITyADJ=14
 ICtDFT=  3500011 ScaDFX=  1.000000  1.000000  1.000000  1.000000
 FoFCou: FMM=F IPFlag=           0 FMFlag=      100000 FMFlg1=           0
         NFxFlg=           0 DoJE=T BraDBF=F KetDBF=T FulRan=T
         wScrn=  0.000000 ICntrl=     500 IOpCl=  0 I1Cent=   200000004 NGrid=           0
         NMat0=    1 NMatS0=      1 NMatT0=    0 NMatD0=    1 NMtDS0=    0 NMtDT0=    0
 Petite list used in FoFCou.
 Harris En= -40.9963682762066    
 JPrj=0 DoOrth=F DoCkMO=F.
 Initial guess <Sx>= 0.0000 <Sy>= 0.0000 <Sz>= 0.5000 <S**2>= 0.7500 S= 0.5000
 Leave Link  401 at Thu Sep  5 23:05:10 2019, MaxMem=  2684354560 cpu:         2.1
 (Enter /soft/gaussian/09-e.01/g09/l502.exe)
 UHF open shell SCF:
 Using DIIS extrapolation, IDIIS=  1040.
 Integral symmetry usage will be decided dynamically.
 Keep R1 and R2 ints in memory in canonical form, NReq=976418.
 IVT=        8268 IEndB=        8268 NGot=  2684354560 MDV=  2684240343
 LenX=  2684240343 LenY=  2684239277
 Requested convergence on RMS density matrix=1.00D-08 within  64 cycles.
 Requested convergence on MAX density matrix=1.00D-06.
 Requested convergence on             energy=1.00D-06.
 No special actions if energy rises.
 FoFCou: FMM=F IPFlag=           0 FMFlag=           0 FMFlg1=           0
         NFxFlg=           0 DoJE=F BraDBF=F KetDBF=F FulRan=T
         wScrn=  0.000000 ICntrl=     600 IOpCl=  0 I1Cent=           0 NGrid=           0
         NMat0=    1 NMatS0=    325 NMatT0=    0 NMatD0=    1 NMtDS0=    0 NMtDT0=    0
 Symmetry not used in FoFCou.
 Integral accuracy reduced to 1.0D-05 until final iterations.

 Cycle   1  Pass 0  IDiag  1:
 E= -40.9585758595943    
 DIIS: error= 5.27D-02 at cycle   1 NSaved=   1.
 NSaved= 1 IEnMin= 1 EnMin= -40.9585758595943     IErMin= 1 ErrMin= 5.27D-02
 ErrMax= 5.27D-02  0.00D+00 EMaxC= 1.00D-01 BMatC= 1.51D-01 BMatP= 1.51D-01
 IDIUse=3 WtCom= 4.73D-01 WtEn= 5.27D-01
 Coeff-Com:  0.100D+01
 Coeff-En:   0.100D+01
 Coeff:      0.100D+01
 Gap=     0.220 Goal=   None    Shift=    0.000
 Gap=     0.436 Goal=   None    Shift=    0.000
 GapD=    0.220 DampG=1.000 DampE=0.500 DampFc=0.5000 IDamp=-1.
 Damping current iteration by 5.00D-01
 RMSDP=1.43D-02 MaxDP=1.52D-01              OVMax= 1.40D-01

 Cycle   2  Pass 0  IDiag  1:
 E= -40.9808911228756     Delta-E=       -0.022315263281 Rises=F Damp=T
 DIIS: error= 7.80D-03 at cycle   2 NSaved=   2.
 NSaved= 2 IEnMin= 2 EnMin= -40.9808911228756     IErMin= 2 ErrMin= 7.80D-03
 ErrMax= 7.80D-03  0.00D+00 EMaxC= 1.00D-01 BMatC= 6.65D-03 BMatP= 1.51D-01
 IDIUse=3 WtCom= 9.22D-01 WtEn= 7.80D-02
 Coeff-Com: -0.645D-02 0.101D+01
 Coeff-En:   0.000D+00 0.100D+01
 Coeff:     -0.595D-02 0.101D+01
 Gap=     0.302 Goal=   None    Shift=    0.000
 Gap=     0.355 Goal=   None    Shift=    0.000
 RMSDP=2.19D-03 MaxDP=1.63D-02 DE=-2.23D-02 OVMax= 8.71D-02

 Cycle   3  Pass 0  IDiag  1:
 E= -41.0039173290326     Delta-E=       -0.023026206157 Rises=F Damp=F
 DIIS: error= 1.99D-03 at cycle   3 NSaved=   3.
 NSaved= 3 IEnMin= 3 EnMin= -41.0039173290326     IErMin= 3 ErrMin= 1.99D-03
 ErrMax= 1.99D-03  0.00D+00 EMaxC= 1.00D-01 BMatC= 2.11D-04 BMatP= 6.65D-03
 IDIUse=3 WtCom= 9.80D-01 WtEn= 1.99D-02
 Coeff-Com: -0.233D-01 0.696D-01 0.954D+00
 Coeff-En:   0.000D+00 0.000D+00 0.100D+01
 Coeff:     -0.229D-01 0.682D-01 0.955D+00
 Gap=     0.302 Goal=   None    Shift=    0.000
 Gap=     0.341 Goal=   None    Shift=    0.000
 RMSDP=3.49D-04 MaxDP=3.23D-03 DE=-2.30D-02 OVMax= 4.36D-03

 Cycle   4  Pass 0  IDiag  1:
 E= -41.0040069356841     Delta-E=       -0.000089606651 Rises=F Damp=F
 DIIS: error= 3.41D-04 at cycle   4 NSaved=   4.
 NSaved= 4 IEnMin= 4 EnMin= -41.0040069356841     IErMin= 4 ErrMin= 3.41D-04
 ErrMax= 3.41D-04  0.00D+00 EMaxC= 1.00D-01 BMatC= 1.13D-05 BMatP= 2.11D-04
 IDIUse=3 WtCom= 9.97D-01 WtEn= 3.41D-03
 Coeff-Com:  0.252D-02-0.235D-01-0.118D+00 0.114D+01
 Coeff-En:   0.000D+00 0.000D+00 0.000D+00 0.100D+01
 Coeff:      0.251D-02-0.234D-01-0.117D+00 0.114D+01
 Gap=     0.303 Goal=   None    Shift=    0.000
 Gap=     0.341 Goal=   None    Shift=    0.000
 RMSDP=1.42D-04 MaxDP=1.16D-03 DE=-8.96D-05 OVMax= 1.48D-03

 Cycle   5  Pass 0  IDiag  1:
 E= -41.0040149354411     Delta-E=       -0.000007999757 Rises=F Damp=F
 DIIS: error= 1.26D-04 at cycle   5 NSaved=   5.
 NSaved= 5 IEnMin= 5 EnMin= -41.0040149354411     IErMin= 5 ErrMin= 1.26D-04
 ErrMax= 1.26D-04  0.00D+00 EMaxC= 1.00D-01 BMatC= 1.13D-06 BMatP= 1.13D-05
 IDIUse=3 WtCom= 9.99D-01 WtEn= 1.26D-03
 Coeff-Com:  0.119D-02-0.359D-02-0.716D-01 0.110D-02 0.107D+01
 Coeff-En:   0.000D+00 0.000D+00 0.000D+00 0.000D+00 0.100D+01
 Coeff:      0.119D-02-0.359D-02-0.715D-01 0.110D-02 0.107D+01
 Gap=     0.303 Goal=   None    Shift=    0.000
 Gap=     0.341 Goal=   None    Shift=    0.000
 RMSDP=4.32D-05 MaxDP=3.52D-04 DE=-8.00D-06 OVMax= 4.88D-04

 Cycle   6  Pass 0  IDiag  1:
 E= -41.0040156723665     Delta-E=       -0.000000736925 Rises=F Damp=F
 DIIS: error= 3.19D-05 at cycle   6 NSaved=   6.
 NSaved= 6 IEnMin= 6 EnMin= -41.0040156723665     IErMin= 6 ErrMin= 3.19D-05
 ErrMax= 3.19D-05  0.00D+00 EMaxC= 1.00D-01 BMatC= 5.25D-08 BMatP= 1.13D-06
 IDIUse=1 WtCom= 1.00D+00 WtEn= 0.00D+00
 Coeff-Com: -0.438D-04 0.148D-02 0.373D-02-0.773D-01 0.644D-01 0.101D+01
 Coeff:     -0.438D-04 0.148D-02 0.373D-02-0.773D-01 0.644D-01 0.101D+01
 Gap=     0.303 Goal=   None    Shift=    0.000
 Gap=     0.341 Goal=   None    Shift=    0.000
 RMSDP=9.44D-06 MaxDP=6.89D-05 DE=-7.37D-07 OVMax= 1.21D-04

 Initial convergence to 1.0D-05 achieved.  Increase integral accuracy.
 Cycle   7  Pass 1  IDiag  1:
 E= -41.0040159131933     Delta-E=       -0.000000240827 Rises=F Damp=F
 DIIS: error= 9.58D-06 at cycle   1 NSaved=   1.
 NSaved= 1 IEnMin= 1 EnMin= -41.0040159131933     IErMin= 1 ErrMin= 9.58D-06
 ErrMax= 9.58D-06  0.00D+00 EMaxC= 1.00D-01 BMatC= 1.64D-09 BMatP= 1.64D-09
 IDIUse=1 WtCom= 1.00D+00 WtEn= 0.00D+00
 Coeff-Com:  0.100D+01
 Coeff:      0.100D+01
 Gap=     0.303 Goal=   None    Shift=    0.000
 Gap=     0.341 Goal=   None    Shift=    0.000
 RMSDP=9.44D-06 MaxDP=6.89D-05 DE=-2.41D-07 OVMax= 3.51D-05

 Cycle   8  Pass 1  IDiag  1:
 E= -41.0040159141988     Delta-E=       -0.000000001005 Rises=F Damp=F
 DIIS: error= 5.11D-06 at cycle   2 NSaved=   2.
 NSaved= 2 IEnMin= 2 EnMin= -41.0040159141988     IErMin= 2 ErrMin= 5.11D-06
 ErrMax= 5.11D-06  0.00D+00 EMaxC= 1.00D-01 BMatC= 4.77D-10 BMatP= 1.64D-09
 IDIUse=1 WtCom= 1.00D+00 WtEn= 0.00D+00
 Coeff-Com:  0.245D+00 0.755D+00
 Coeff:      0.245D+00 0.755D+00
 Gap=     0.303 Goal=   None    Shift=    0.000
 Gap=     0.341 Goal=   None    Shift=    0.000
 RMSDP=6.42D-07 MaxDP=6.79D-06 DE=-1.01D-09 OVMax= 1.35D-05

 Cycle   9  Pass 1  IDiag  1:
 E= -41.0040159144304     Delta-E=       -0.000000000232 Rises=F Damp=F
 DIIS: error= 1.98D-06 at cycle   3 NSaved=   3.
 NSaved= 3 IEnMin= 3 EnMin= -41.0040159144304     IErMin= 3 ErrMin= 1.98D-06
 ErrMax= 1.98D-06  0.00D+00 EMaxC= 1.00D-01 BMatC= 1.12D-10 BMatP= 4.77D-10
 IDIUse=1 WtCom= 1.00D+00 WtEn= 0.00D+00
 Coeff-Com: -0.193D+00 0.110D+00 0.108D+01
 Coeff:     -0.193D+00 0.110D+00 0.108D+01
 Gap=     0.303 Goal=   None    Shift=    0.000
 Gap=     0.341 Goal=   None    Shift=    0.000
 RMSDP=4.50D-07 MaxDP=4.08D-06 DE=-2.32D-10 OVMax= 8.25D-06

 Cycle  10  Pass 1  IDiag  1:
 E= -41.0040159145146     Delta-E=       -0.000000000084 Rises=F Damp=F
 DIIS: error= 1.04D-06 at cycle   4 NSaved=   4.
 NSaved= 4 IEnMin= 4 EnMin= -41.0040159145146     IErMin= 4 ErrMin= 1.04D-06
 ErrMax= 1.04D-06  0.00D+00 EMaxC= 1.00D-01 BMatC= 2.34D-11 BMatP= 1.12D-10
 IDIUse=1 WtCom= 1.00D+00 WtEn= 0.00D+00
 Coeff-Com: -0.111D+00-0.719D-01 0.423D+00 0.760D+00
 Coeff:     -0.111D+00-0.719D-01 0.423D+00 0.760D+00
 Gap=     0.303 Goal=   None    Shift=    0.000
 Gap=     0.341 Goal=   None    Shift=    0.000
 RMSDP=1.73D-07 MaxDP=2.30D-06 DE=-8.42D-11 OVMax= 3.89D-06

 Cycle  11  Pass 1  IDiag  1:
 E= -41.0040159145285     Delta-E=       -0.000000000014 Rises=F Damp=F
 DIIS: error= 2.78D-07 at cycle   5 NSaved=   5.
 NSaved= 5 IEnMin= 5 EnMin= -41.0040159145285     IErMin= 5 ErrMin= 2.78D-07
 ErrMax= 2.78D-07  0.00D+00 EMaxC= 1.00D-01 BMatC= 1.19D-12 BMatP= 2.34D-11
 IDIUse=1 WtCom= 1.00D+00 WtEn= 0.00D+00
 Coeff-Com:  0.283D-01-0.124D-01-0.171D+00-0.594D-01 0.121D+01
 Coeff:      0.283D-01-0.124D-01-0.171D+00-0.594D-01 0.121D+01
 Gap=     0.303 Goal=   None    Shift=    0.000
 Gap=     0.341 Goal=   None    Shift=    0.000
 RMSDP=7.18D-08 MaxDP=8.62D-07 DE=-1.39D-11 OVMax= 1.56D-06

 Cycle  12  Pass 1  IDiag  1:
 E= -41.0040159145299     Delta-E=       -0.000000000001 Rises=F Damp=F
 DIIS: error= 2.61D-08 at cycle   6 NSaved=   6.
 NSaved= 6 IEnMin= 6 EnMin= -41.0040159145299     IErMin= 6 ErrMin= 2.61D-08
 ErrMax= 2.61D-08  0.00D+00 EMaxC= 1.00D-01 BMatC= 5.32D-14 BMatP= 1.19D-12
 IDIUse=1 WtCom= 1.00D+00 WtEn= 0.00D+00
 Coeff-Com:  0.922D-02 0.410D-03-0.429D-01-0.403D-01 0.166D+00 0.907D+00
 Coeff:      0.922D-02 0.410D-03-0.429D-01-0.403D-01 0.166D+00 0.907D+00
 Gap=     0.303 Goal=   None    Shift=    0.000
 Gap=     0.341 Goal=   None    Shift=    0.000
 RMSDP=1.05D-08 MaxDP=9.36D-08 DE=-1.42D-12 OVMax= 1.46D-07

 Cycle  13  Pass 1  IDiag  1:
 E= -41.0040159145299     Delta-E=       -0.000000000000 Rises=F Damp=F
 DIIS: error= 7.32D-09 at cycle   7 NSaved=   7.
 NSaved= 7 IEnMin= 7 EnMin= -41.0040159145299     IErMin= 7 ErrMin= 7.32D-09
 ErrMax= 7.32D-09  0.00D+00 EMaxC= 1.00D-01 BMatC= 4.16D-15 BMatP= 5.32D-14
 IDIUse=1 WtCom= 1.00D+00 WtEn= 0.00D+00
 Coeff-Com: -0.323D-02 0.750D-03 0.186D-01 0.112D-01-0.119D+00-0.113D+00
 Coeff-Com:  0.120D+01
 Coeff:     -0.323D-02 0.750D-03 0.186D-01 0.112D-01-0.119D+00-0.113D+00
 Coeff:      0.120D+01
 Gap=     0.303 Goal=   None    Shift=    0.000
 Gap=     0.341 Goal=   None    Shift=    0.000
 RMSDP=3.12D-09 MaxDP=2.23D-08 DE=-1.42D-14 OVMax= 3.19D-08

 SCF Done:  E(UB3LYP) =  -41.0040159145     A.U. after   13 cycles
            NFock= 13  Conv=0.31D-08     -V/T= 2.0135
 <Sx>= 0.0000 <Sy>= 0.0000 <Sz>= 0.5000 <S**2>= 0.7538 S= 0.5019
 <L.S>= 0.000000000000E+00
 KE= 4.045722658187D+01 PE=-1.205544252064D+02 EE= 2.576280095881D+01
 Annihilation of the first spin contaminant:
 S**2 before annihilation     0.7538,   after     0.7500
 Leave Link  502 at Thu Sep  5 23:05:10 2019, MaxMem=  2684354560 cpu:         7.5
 (Enter /soft/gaussian/09-e.01/g09/l508.exe)
 QCSCF skips out because SCF is already converged.
 Leave Link  508 at Thu Sep  5 23:05:10 2019, MaxMem=  2684354560 cpu:         0.0
 (Enter /soft/gaussian/09-e.01/g09/l601.exe)
 Copying SCF densities to generalized density rwf, IOpCl= 1 IROHF=0.

 **********************************************************************

            Population analysis using the SCF density.

 **********************************************************************

 Orbital symmetries:
 Alpha Orbitals:
       Occupied  (A) (A) (A) (A) (A) (A)
       Virtual   (A) (A) (A) (A) (A) (A) (A) (A) (A) (A) (A) (A)
                 (A) (A) (A) (A) (A) (A) (A)
 Beta  Orbitals:
       Occupied  (A) (A) (A) (A) (A)
       Virtual   (A) (A) (A) (A) (A) (A) (A) (A) (A) (A) (A) (A)
                 (A) (A) (A) (A) (A) (A) (A) (A)
 The electronic state is 2-A.
 Alpha  occ. eigenvalues --  -10.19782  -0.68468  -0.41970  -0.41847  -0.40319
 Alpha  occ. eigenvalues --   -0.22831
 Alpha virt. eigenvalues --    0.07440   0.11170   0.17561   0.18009   0.53626
 Alpha virt. eigenvalues --    0.54591   0.54791   0.62363   0.78322   0.90056
 Alpha virt. eigenvalues --    0.91053   0.95793   1.09928   1.64528   1.64656
 Alpha virt. eigenvalues --    2.00076   2.16065   2.19770   4.08163
  Beta  occ. eigenvalues --  -10.18384  -0.64472  -0.41007  -0.40914  -0.40049
  Beta virt. eigenvalues --   -0.05933   0.08454   0.12778   0.18141   0.18578
  Beta virt. eigenvalues --    0.54500   0.55611   0.59727   0.65446   0.79990
  Beta virt. eigenvalues --    0.90533   0.91642   0.98273   1.10467   1.71496
  Beta virt. eigenvalues --    1.71645   2.08585   2.17241   2.20979   4.11886
          Condensed to atoms (all electrons):
               1          2          3          4          5          6
     1  C    5.341989   0.380769   0.378047   0.378143   0.011308  -0.004923
     2  H    0.380769   0.509330  -0.030207  -0.030208   0.000064   0.000067
     3  H    0.378047  -0.030207   0.515304  -0.028115   0.000380  -0.000056
     4  H    0.378143  -0.030208  -0.028115   0.515154   0.000310  -0.000023
     5  H    0.011308   0.000064   0.000380   0.000310   0.614473   0.369817
     6  H   -0.004923   0.000067  -0.000056  -0.000023   0.369817   0.653003
          Atomic-Atomic Spin Densities.
               1          2          3          4          5          6
     1  C    1.153327  -0.009529  -0.008968  -0.008963   0.009834  -0.005288
     2  H   -0.009529  -0.042308   0.001048   0.001051   0.000087  -0.000050
     3  H   -0.008968   0.001048  -0.043832   0.000946   0.000097  -0.000037
     4  H   -0.008963   0.001051   0.000946  -0.043785   0.000085  -0.000035
     5  H    0.009834   0.000087   0.000097   0.000085  -0.012691  -0.007428
     6  H   -0.005288  -0.000050  -0.000037  -0.000035  -0.007428   0.043591
 Mulliken charges and spin densities:
               1          2
     1  C   -0.485334   1.130413
     2  H    0.170185  -0.049701
     3  H    0.164647  -0.050746
     4  H    0.164740  -0.050701
     5  H    0.003647  -0.010017
     6  H   -0.017885   0.030753
 Sum of Mulliken charges =  -0.00000   1.00000
 Mulliken charges and spin densities with hydrogens summed into heavy atoms:
               1          2
     1  C   -0.000000   1.000000
 Electronic spatial extent (au):  <R**2>=             89.5312
 Charge=             -0.0000 electrons
 Dipole moment (field-independent basis, Debye):
    X=              0.1063    Y=             -0.0038    Z=              0.0011  Tot=              0.1064
 Quadrupole moment (field-independent basis, Debye-Ang):
   XX=            -10.9742   YY=             -9.1472   ZZ=             -9.1766
   XY=             -0.0440   XZ=             -0.2487   YZ=             -0.0029
 Traceless Quadrupole moment (field-independent basis, Debye-Ang):
   XX=             -1.2082   YY=              0.6188   ZZ=              0.5894
   XY=             -0.0440   XZ=             -0.2487   YZ=             -0.0029
 Octapole moment (field-independent basis, Debye-Ang**2):
  XXX=              0.1956  YYY=              0.2312  ZZZ=              0.8720  XYY=              1.6187
  XXY=             -0.1401  XXZ=              0.6500  XZZ=              1.3336  YZZ=             -0.2264
  YYZ=             -0.7549  XYZ=              0.0597
 Hexadecapole moment (field-independent basis, Debye-Ang**3):
 XXXX=            -97.9138 YYYY=            -16.2213 ZZZZ=            -16.1173 XXXY=              0.1996
 XXXZ=             -3.0814 YYYX=             -0.0190 YYYZ=             -0.0009 ZZZX=              0.0298
 ZZZY=             -0.0024 XXYY=            -20.9905 XXZZ=            -20.7318 YYZZ=             -5.3946
 XXYZ=             -0.0007 YYXZ=             -0.5088 ZZXY=             -0.1530
 N-N= 1.333038175120D+01 E-N=-1.205544252180D+02  KE= 4.045722658187D+01
                          Isotropic Fermi Contact Couplings
        Atom                 a.u.       MegaHertz       Gauss      10(-4) cm-1
     1  C(13)              0.11572     130.09102      46.41971      43.39369
     2  H(1)              -0.01515     -67.71700     -24.16311     -22.58796
     3  H(1)              -0.01554     -69.45942     -24.78485     -23.16917
     4  H(1)              -0.01553     -69.40044     -24.76380     -23.14950
     5  H(1)              -0.00329     -14.69162      -5.24233      -4.90060
     6  H(1)               0.01001      44.73892      15.96396      14.92330
 --------------------------------------------------------
       Center         ----  Spin Dipole Couplings  ----
                      3XX-RR        3YY-RR        3ZZ-RR
 --------------------------------------------------------
     1   Atom        1.067589     -0.536770     -0.530819
     2   Atom       -0.003408     -0.072067      0.075475
     3   Atom       -0.006693      0.051607     -0.044913
     4   Atom       -0.006760      0.028583     -0.021822
     5   Atom        0.026471     -0.013807     -0.012664
     6   Atom        0.006581     -0.003143     -0.003438
 --------------------------------------------------------
                        XY            XZ            YZ
 --------------------------------------------------------
     1   Atom        0.050484      0.115876      0.003697
     2   Atom        0.003676     -0.010838     -0.014261
     3   Atom       -0.002988      0.006854     -0.054655
     4   Atom       -0.001505      0.002200      0.068845
     5   Atom        0.000058     -0.000699     -0.000119
     6   Atom       -0.000039      0.000375      0.000034
 --------------------------------------------------------


 ---------------------------------------------------------------------------------
              Anisotropic Spin Dipole Couplings in Principal Axis System
 ---------------------------------------------------------------------------------

       Atom             a.u.   MegaHertz   Gauss  10(-4) cm-1        Axes

              Baa    -0.5392   -72.353   -25.817   -24.134 -0.0696 -0.0680  0.9953
     1 C(13)  Bbb    -0.5384   -72.242   -25.778   -24.097 -0.0361  0.9972  0.0656
              Bcc     1.0775   144.595    51.595    48.232  0.9969  0.0313  0.0719
 
              Baa    -0.0735   -39.233   -13.999   -13.087 -0.0379  0.9950  0.0925
     2 H(1)   Bbb    -0.0048    -2.575    -0.919    -0.859  0.9901  0.0248  0.1380
              Bcc     0.0784    41.809    14.918    13.946 -0.1350 -0.0968  0.9861
 
              Baa    -0.0700   -37.330   -13.320   -12.452 -0.0793  0.4071  0.9099
     3 H(1)   Bbb    -0.0067    -3.555    -1.269    -1.186  0.9946  0.0932  0.0450
              Bcc     0.0766    40.885    14.589    13.638 -0.0665  0.9086 -0.4123
 
              Baa    -0.0700   -37.373   -13.336   -12.466 -0.0421 -0.5723  0.8190
     4 H(1)   Bbb    -0.0066    -3.547    -1.266    -1.183  0.9991 -0.0244  0.0343
              Bcc     0.0767    40.920    14.601    13.649  0.0003  0.8197  0.5728
 
              Baa    -0.0138    -7.373    -2.631    -2.459  0.0004  0.9947  0.1029
     5 H(1)   Bbb    -0.0127    -6.757    -2.411    -2.254  0.0179 -0.1029  0.9945
              Bcc     0.0265    14.130     5.042     4.713  0.9998  0.0015 -0.0178
 
              Baa    -0.0035    -1.844    -0.658    -0.615 -0.0375 -0.1123  0.9930
     6 H(1)   Bbb    -0.0031    -1.675    -0.598    -0.559 -0.0004  0.9937  0.1123
              Bcc     0.0066     3.519     1.256     1.174  0.9993 -0.0038  0.0373
 

 ---------------------------------------------------------------------------------

 No NMR shielding tensors so no spin-rotation constants.
 Leave Link  601 at Thu Sep  5 23:05:11 2019, MaxMem=  2684354560 cpu:         2.9
 (Enter /soft/gaussian/09-e.01/g09/l701.exe)
 Compute integral first derivatives.
 ... and contract with generalized density number  0.
 Leave Link  701 at Thu Sep  5 23:05:11 2019, MaxMem=  2684354560 cpu:         1.5
 (Enter /soft/gaussian/09-e.01/g09/l702.exe)
 L702 exits ... SP integral derivatives will be done elsewhere.
 Leave Link  702 at Thu Sep  5 23:05:11 2019, MaxMem=  2684354560 cpu:         0.1
 (Enter /soft/gaussian/09-e.01/g09/l703.exe)
 Compute integral first derivatives, UseDBF=F ICtDFT=           0.
 Integral derivatives from FoFJK, PRISM(SPDF).
 Calling FoFJK, ICntrl=      2127 FMM=F ISym2X=0 I1Cent= 0 IOpClX= 1 NMat=1 NMatS=1 NMatT=0.
 FoFJK:  IHMeth= 1 ICntrl=    2127 DoSepK=F KAlg= 0 I1Cent=   0 FoldK=F
 IRaf=         0 NMat=   1 IRICut=       1 DoRegI=T DoRafI=F ISym2E= 0.
 FoFCou: FMM=F IPFlag=           0 FMFlag=      100000 FMFlg1=         800
         NFxFlg=           0 DoJE=F BraDBF=F KetDBF=F FulRan=T
         wScrn=  0.000000 ICntrl=    2127 IOpCl=  1 I1Cent=           0 NGrid=           0
         NMat0=    1 NMatS0=      1 NMatT0=    0 NMatD0=    1 NMtDS0=    0 NMtDT0=    0
 Symmetry not used in FoFCou.
 Leave Link  703 at Thu Sep  5 23:05:11 2019, MaxMem=  2684354560 cpu:         2.4
 (Enter /soft/gaussian/09-e.01/g09/l716.exe)
 Dipole        = 4.18384326D-02-1.51418161D-03 4.30499005D-04
 ***** Axes restored to original set *****
 -------------------------------------------------------------------
 Center     Atomic                   Forces (Hartrees/Bohr)
 Number     Number              X              Y              Z
 -------------------------------------------------------------------
      1        6           0.000833376    0.004323376   -0.016060378
      2        1          -0.000080747   -0.001142966    0.009738948
      3        1          -0.009074906   -0.000992341    0.003139571
      4        1           0.008317411   -0.002460635    0.002868131
      5        1           0.007003821    0.055881077    0.029504409
      6        1          -0.006998955   -0.055608512   -0.029190680
 -------------------------------------------------------------------
 Cartesian Forces:  Max     0.055881077 RMS     0.021840055
 -----------------------------------------------------------------------------------------------
                       Internal Coordinate Forces (Hartree/Bohr or radian)
  Cent   Atom   N1       Length/X         N2         Alpha/Y        N3         Beta/Z          J
 -----------------------------------------------------------------------------------------------
      1  C 
      2  H        1   0.009739(     1)
      3  H        1  -0.009453(     2)      2   0.003501(     7)
      4  H        1  -0.008928(     3)      2   0.003534(     8)      3  -0.001664(    12)     0
      5  H        1   0.000286(     4)      2  -0.000247(     9)      3  -0.000132(    13)     0
         X        5   0.000000(     5)      1  -0.001252(    10)      2   0.000007(    14)     0
      6  H        5  -0.063189(     6)      6  -0.001252(    11)      1  -0.000013(    15)     0
 -----------------------------------------------------------------------------------------------
 Internal  Forces:  Max     0.063188804 RMS     0.016906682
 Force constants in Cartesian coordinates: 
                1             2             3             4             5 
      1  0.690587D+00
      2 -0.401559D-01  0.230698D+00
      3 -0.108475D-02 -0.241588D-01  0.716693D+00
      4 -0.115692D+00  0.298395D-02 -0.262919D-02  0.783097D-01
      5  0.298192D-02 -0.694591D-01 -0.233198D-01 -0.129989D-02  0.499374D-01
      6  0.000000D+00  0.000000D+00 -0.372301D+00  0.000000D+00  0.000000D+00
      7 -0.287149D+00  0.185843D-02  0.983067D-01  0.186950D-01  0.443359D-03
      8 -0.180183D-01 -0.665051D-01  0.145139D-01  0.900664D-03  0.986776D-02
      9  0.951961D-01  0.332325D-02 -0.164593D+00  0.334304D-01  0.792814D-03
     10 -0.277769D+00  0.361177D-01 -0.941940D-01  0.181788D-01 -0.196699D-02
     11  0.560871D-01 -0.775179D-01  0.330371D-01 -0.242587D-02  0.104017D-01
     12 -0.936307D-01  0.215312D-01 -0.164948D+00 -0.327577D-01  0.681419D-02
     13 -0.145297D-01 -0.285732D-03  0.596272D-03  0.215705D-02 -0.363755D-03
     14 -0.353313D-03 -0.177040D-01  0.853010D-02 -0.363945D-03 -0.722226D-03
     15 -0.417508D-03  0.132645D-03 -0.319704D-01  0.195124D-02  0.157135D-01
     16  0.455268D-02 -0.518383D-03 -0.995032D-03 -0.164890D-02  0.205352D-03
     17 -0.541493D-03  0.487630D-03 -0.860253D-02  0.205095D-03 -0.255423D-04
     18 -0.631410D-04 -0.828344D-03  0.171195D-01  0.526242D-05  0.000000D+00
                6             7             8             9            10 
      6  0.372301D+00
      7  0.000000D+00  0.277006D+00
      8  0.000000D+00 -0.101450D-02  0.477361D-01
      9  0.000000D+00 -0.113334D+00 -0.181412D-02  0.137722D+00
     10  0.000000D+00 -0.898605D-02  0.476797D-02 -0.160688D-01  0.270765D+00
     11  0.000000D+00 -0.125158D-02  0.101944D-01 -0.223807D-02 -0.392458D-01
     12  0.000000D+00  0.154023D-01 -0.509905D-02  0.275423D-01  0.111382D+00
     13  0.000000D+00 -0.354927D-03  0.135313D-01 -0.634680D-03 -0.298513D-02
     14  0.000000D+00  0.624098D-04 -0.131389D-02  0.111601D-03  0.426310D-03
     15  0.000000D+00 -0.372759D-03 -0.760122D-02 -0.666567D-03 -0.111669D-02
     16  0.000000D+00  0.788880D-03 -0.167151D-03  0.141067D-02  0.796754D-03
     17  0.000000D+00 -0.981232D-04  0.207907D-04 -0.175464D-03 -0.991026D-04
     18  0.000000D+00 -0.251769D-05  0.000000D+00 -0.450213D-05 -0.254282D-05
               11            12            13            14            15 
     11  0.549169D-01
     12 -0.233173D-01  0.137850D+00
     13 -0.131335D-01  0.101532D-02  0.381380D-01
     14  0.200109D-02 -0.104537D-03  0.237397D-01  0.224317D+00
     15 -0.748181D-02 -0.448559D-03  0.868289D-02  0.667148D-01  0.146478D+00
     16 -0.302959D-04 -0.141121D-02 -0.224254D-01 -0.235111D-01 -0.872718D-02
     17  0.376829D-05  0.175531D-03 -0.234880D-01 -0.206578D+00 -0.674779D-01
     18  0.000000D+00  0.450385D-05 -0.965981D-02 -0.752520D-01 -0.113393D+00
               16            17            18 
     16  0.179360D-01
     17  0.240216D-01  0.206091D+00
     18  0.972275D-02  0.760804D-01  0.962732D-01
 Force constants in internal coordinates: 
                1             2             3             4             5 
      1  0.372301D+00
      2  0.000000D+00  0.340385D+00
      3  0.000000D+00  0.000000D+00  0.341284D+00
      4  0.000000D+00  0.000000D+00  0.000000D+00  0.173505D-01
      5  0.000000D+00  0.000000D+00  0.000000D+00  0.000000D+00  0.000000D+00
      6  0.000000D+00  0.000000D+00  0.000000D+00  0.000000D+00  0.000000D+00
      7  0.000000D+00  0.000000D+00  0.000000D+00  0.000000D+00  0.000000D+00
      8  0.000000D+00  0.000000D+00  0.000000D+00  0.000000D+00  0.000000D+00
      9  0.000000D+00  0.000000D+00  0.000000D+00  0.000000D+00  0.000000D+00
     10  0.000000D+00  0.000000D+00  0.000000D+00  0.000000D+00  0.000000D+00
     11  0.000000D+00  0.000000D+00  0.000000D+00  0.000000D+00  0.000000D+00
     12  0.000000D+00  0.000000D+00  0.000000D+00  0.000000D+00  0.000000D+00
     13  0.000000D+00  0.000000D+00  0.000000D+00  0.000000D+00  0.000000D+00
     14  0.000000D+00  0.000000D+00  0.000000D+00  0.000000D+00  0.000000D+00
     15  0.000000D+00  0.000000D+00  0.000000D+00  0.000000D+00  0.000000D+00
                6             7             8             9            10 
      6  0.247906D+00
      7  0.000000D+00  0.319370D+00
      8  0.000000D+00  0.155206D+00  0.318438D+00
      9  0.000000D+00 -0.798198D-02 -0.525080D-02  0.237899D+00
     10  0.000000D+00  0.163076D-04 -0.163018D-04  0.000000D+00  0.159999D+00
     11  0.000000D+00  0.195574D-04 -0.195505D-04  0.000000D+00  0.159999D+00
     12  0.000000D+00  0.218895D-01  0.122217D-01  0.683196D-01 -0.100215D-05
     13  0.000000D+00 -0.142385D-01  0.977680D-02  0.390108D-03  0.247412D-05
     14  0.000000D+00 -0.229593D-02  0.229512D-02  0.115783D-03 -0.490096D-04
     15  0.000000D+00  0.514309D-02 -0.514126D-02 -0.259363D-03 -0.397536D-03
               11            12            13            14            15 
     11  0.159999D+00
     12 -0.120186D-05  0.156897D+00
     13  0.296716D-05 -0.121311D+00  0.242152D+00
     14 -0.587762D-04  0.141092D-03 -0.348328D-03  0.690000D-02
     15 -0.375657D-03 -0.316057D-03  0.780285D-03 -0.154566D-01  0.346257D-01
 Leave Link  716 at Thu Sep  5 23:05:11 2019, MaxMem=  2684354560 cpu:         0.2
 (Enter /soft/gaussian/09-e.01/g09/l103.exe)

 GradGradGradGradGradGradGradGradGradGradGradGradGradGradGradGradGradGrad
 Berny optimization.
 Search for a local minimum.
 Step number   1 out of a maximum of   25
 All quantities printed in internal units (Hartrees-Bohrs-Radians)
 Second derivative matrix not updated -- first step.
 The second derivative matrix:
                          R1        R2        A2        R3        A3
           R1           0.37230
           R2           0.00000   0.34038
           A2           0.00000   0.00000   0.31937
           R3          -0.00000  -0.00000   0.00000   0.34128
           A3           0.00000  -0.00000   0.15521  -0.00000   0.31844
           D3           0.00000  -0.00000   0.02189   0.00000   0.01222
           R4          -0.00000   0.00000   0.00000  -0.00000   0.00000
           A4          -0.00000  -0.00000  -0.00798  -0.00000  -0.00525
           D4           0.00000  -0.00000  -0.01424   0.00000   0.00978
           A6          -0.00000   0.00000   0.00002  -0.00000  -0.00002
           D6           0.00000  -0.00000   0.00514  -0.00000  -0.00514
           A5          -0.00000   0.00000   0.00002  -0.00000  -0.00002
           D5          -0.00000   0.00000  -0.00230  -0.00000   0.00230
           R5          -0.00000  -0.00000  -0.00000  -0.00000  -0.00000
           R6          -0.00000  -0.00000   0.00000  -0.00000   0.00000
                          D3        R4        A4        D4        A6
           D3           0.15690
           R4          -0.00000   0.01735
           A4           0.06832   0.00000   0.23790
           D4          -0.12131  -0.00000   0.00039   0.24215
           A6          -0.00000  -0.00000  -0.00000   0.00000   0.16000
           D6          -0.00032   0.00000  -0.00026   0.00078  -0.00038
           A5          -0.00000  -0.00000  -0.00000   0.00000   0.16000
           D5           0.00014  -0.00000   0.00012  -0.00035  -0.00006
           R5           0.00000   0.00000  -0.00000  -0.00000   0.00000
           R6          -0.00000  -0.00000  -0.00000  -0.00000  -0.00000
                          D6        A5        D5        R5        R6
           D6           0.03463
           A5          -0.00040   0.16000
           D5          -0.01546  -0.00005   0.00690
           R5           0.00000   0.00000  -0.00000   0.00000
           R6           0.00000   0.00000  -0.00000  -0.00000   0.24791
 ITU=  0
     Eigenvalues ---    0.01735   0.03420   0.05237   0.16000   0.16165
     Eigenvalues ---    0.24011   0.34038   0.34128   0.34428   0.37230
     Eigenvalues ---    0.476781000.000001000.000001000.000001000.00000
 RFO step:  Lambda=-8.63955525D-04 EMin= 1.73504538D-02
 Linear search not attempted -- first point.
 Variable       Old X    -DE/DX   Delta X   Delta X   Delta X     New X
                                 (Linear)    (Quad)   (Total)
    R1        2.02201   0.00974   0.00000   0.02610   0.02610   2.04811
    R2        2.07265  -0.00945   0.00000  -0.02770  -0.02770   2.04495
    A2        2.08069   0.00350   0.00000   0.00808   0.00808   2.08877
    R3        2.07114  -0.00893   0.00000  -0.02609  -0.02609   2.04505
    A3        2.08068   0.00353   0.00000   0.00861   0.00861   2.08929
    D3        3.32292  -0.00166   0.00000  -0.02523  -0.02523   3.29769
    R4        4.99266   0.00029   0.00000   0.01570   0.01570   5.00836
    A4        1.52236  -0.00025   0.00000   0.00666   0.00666   1.52903
    D4        4.83629  -0.00013   0.00000  -0.01302  -0.01302   4.82327
    A6        1.99066  -0.00125   0.00000  -0.00778  -0.00778   1.98288
    D6        3.14018  -0.00001   0.00000  -0.00025  -0.00025   3.13993
    A5        1.57080  -0.00125   0.00000   0.00000   0.00000   1.57080
    D5        3.14159   0.00001   0.00000   0.00000   0.00000   3.14159
    R5        1.88973   0.00000   0.00000   0.00000   0.00000   1.88973
    R6        1.66844  -0.06319   0.00000   0.00000   0.00000   1.66844
         Item               Value     Threshold  Converged?
 Maximum Force            0.009739     0.000450     NO 
 RMS     Force            0.005162     0.000300     NO 
 Maximum Displacement     0.027701     0.001800     NO 
 RMS     Displacement     0.015114     0.001200     NO 
 Predicted change in Energy=-4.334579D-04
 Lowest energy point so far.  Saving SCF results.
 GradGradGradGradGradGradGradGradGradGradGradGradGradGradGradGradGradGrad

 Leave Link  103 at Thu Sep  5 23:05:11 2019, MaxMem=  2684354560 cpu:         0.1
 (Enter /soft/gaussian/09-e.01/g09/l202.exe)
 ---------------------------------------------------------------------------------------------------
                            Z-MATRIX (ANGSTROMS AND DEGREES)
   CD    Cent   Atom    N1       Length/X        N2       Alpha/Y        N3        Beta/Z          J
 ---------------------------------------------------------------------------------------------------
      1      1  C 
      2      2  H        1   1.083811(     1)
      3      3  H        1   1.082141(     2)      2  119.678(     7)
      4      4  H        1   1.082192(     3)      2  119.708(     8)      3  188.943(    12)      0
      5      5  H        1   2.650308(     4)      2   87.607(     9)      3  276.353(    13)      0
      6         X        5   1.000000(     5)      1   90.000(    10)      2  180.000(    14)      0
      7      6  H        5   0.882900(     6)      6  113.610(    11)      1  179.905(    15)      0
 ---------------------------------------------------------------------------------------------------
                         Z-Matrix orientation:                         
 ---------------------------------------------------------------------
 Center     Atomic      Atomic             Coordinates (Angstroms)
 Number     Number       Type             X           Y           Z
 ---------------------------------------------------------------------
      1          6           0        0.000000    0.000000    0.000000
      2          1           0        0.000000    0.000000    1.083811
      3          1           0        0.940192    0.000000   -0.535788
      4          1           0       -0.928528    0.146125   -0.536305
      5          1           0        0.293008    2.631735    0.110666
      6         -1           0        0.297629    2.673234   -0.888462
      7          1           0        0.382153    3.420233    0.497753
 ---------------------------------------------------------------------
                    Distance matrix (angstroms):
                    1          2          3          4          5
     1  C    0.000000
     2  H    1.083811   0.000000
     3  H    1.082141   1.872715   0.000000
     4  H    1.082192   1.873043   1.874424   0.000000
     5  H    2.650308   2.821151   2.786176   2.844113   0.000000
     6  X    2.832690   3.335360   2.771903   2.830858   1.000000
     7  H    3.477326   3.491060   3.616298   3.675179   0.882900
                    6          7
     6  X    0.000000
     7  H    1.576941   0.000000
 Stoichiometry    CH5(2)
 Framework group  C1[X(CH5)]
 Deg. of freedom    12
 Full point group                 C1      NOp   1
 RotChk:  IX=1 Diff= 1.80D+00
 Largest Abelian subgroup         C1      NOp   1
 Largest concise Abelian subgroup C1      NOp   1
                         Standard orientation:                         
 ---------------------------------------------------------------------
 Center     Atomic      Atomic             Coordinates (Angstroms)
 Number     Number       Type             X           Y           Z
 ---------------------------------------------------------------------
      1          6           0        0.569621   -0.009201    0.003851
      2          1           0        0.444341   -1.080657    0.108407
      3          1           0        0.523886    0.623654    0.880454
      4          1           0        0.593768    0.434159   -0.983058
      5          1           0       -2.073389    0.184832   -0.027500
      6          1           0       -2.906331   -0.106781   -0.001411
 ---------------------------------------------------------------------
 Rotational constants (GHZ):    141.4189764     27.0790105     27.0244635
 Leave Link  202 at Thu Sep  5 23:05:11 2019, MaxMem=  2684354560 cpu:         0.1
 (Enter /soft/gaussian/09-e.01/g09/l301.exe)
 Standard basis: 6-31G(d) (6D, 7F)
 Ernie: Thresh=  0.10000D-02 Tol=  0.10000D-05 Strict=F.
 There are    25 symmetry adapted cartesian basis functions of A   symmetry.
 There are    25 symmetry adapted basis functions of A   symmetry.
    25 basis functions,    48 primitive gaussians,    25 cartesian basis functions
     6 alpha electrons        5 beta electrons
       nuclear repulsion energy        13.3608208338 Hartrees.
 IExCor=  402 DFT=T Ex+Corr=B3LYP ExCW=0 ScaHFX=  0.200000
 ScaDFX=  0.800000  0.720000  1.000000  0.810000 ScalE2=  1.000000  1.000000
 IRadAn=      5 IRanWt=     -1 IRanGd=            0 ICorTp=0 IEmpDi=  4
 NAtoms=    6 NActive=    6 NUniq=    6 SFac= 1.00D+00 NAtFMM=   60 NAOKFM=F Big=F
 Integral buffers will be    131072 words long.
 Raffenetti 2 integral format.
 Two-electron integral symmetry is turned on.
 Leave Link  301 at Thu Sep  5 23:05:11 2019, MaxMem=  2684354560 cpu:         0.5
 (Enter /soft/gaussian/09-e.01/g09/l302.exe)
 NPDir=0 NMtPBC=     1 NCelOv=     1 NCel=       1 NClECP=     1 NCelD=      1
         NCelK=      1 NCelE2=     1 NClLst=     1 CellRange=     0.0.
 One-electron integrals computed using PRISM.
 NBasis=    25 RedAO= T EigKep=  2.65D-02  NBF=    25
 NBsUse=    25 1.00D-06 EigRej= -1.00D+00 NBFU=    25
 Precomputing XC quadrature grid using
 IXCGrd= 4 IRadAn=           5 IRanWt=          -1 IRanGd=           0 AccXCQ= 0.00D+00.
 Generated NRdTot=       0 NPtTot=           0 NUsed=           0 NTot=          32
 NSgBfM=    25    25    25    25    25 MxSgAt=     6 MxSgA2=     6.
 Leave Link  302 at Thu Sep  5 23:05:11 2019, MaxMem=  2684354560 cpu:         1.6
 (Enter /soft/gaussian/09-e.01/g09/l303.exe)
 DipDrv:  MaxL=1.
 Leave Link  303 at Thu Sep  5 23:05:11 2019, MaxMem=  2684354560 cpu:         0.2
 (Enter /soft/gaussian/09-e.01/g09/l401.exe)
 Initial guess from the checkpoint file:  "/blues/gpfs/home/elliott/Packages/PACC/moldriver/rcdriver/tmprundir/RXN/CH3.H2/MDUSDFXREFXETQ/0_0/2_1/UHFFFAOYSA-N/CH4.H/HXBDELFRWIQQII/0_0/1_2/UHFFFAOYSA-N/2/ezvlpJU/SCANS/R6/01/RUN/OPTI/A01/Gau-149740.chk"
 B after Tr=    -0.000000   -0.000000   -0.000000
         Rot=    0.772295   -0.635265   -0.000064    0.000128 Ang= -78.88 deg.
 Guess basis will be translated and rotated to current coordinates.
 JPrj=2 DoOrth=T DoCkMO=T.
 Initial guess <Sx>= 0.0000 <Sy>= 0.0000 <Sz>= 0.5000 <S**2>= 0.7538 S= 0.5019
 Generating alternative initial guess.
 ExpMin= 1.61D-01 ExpMax= 3.05D+03 ExpMxC= 4.57D+02 IAcc=2 IRadAn=         4 AccDes= 0.00D+00
 Harris functional with IExCor=  402 and IRadAn=       4 diagonalized for initial guess.
 HarFok:  IExCor=  402 AccDes= 0.00D+00 IRadAn=         4 IDoV= 1 UseB2=F ITyADJ=14
 ICtDFT=  3500011 ScaDFX=  1.000000  1.000000  1.000000  1.000000
 FoFCou: FMM=F IPFlag=           0 FMFlag=      100000 FMFlg1=           0
         NFxFlg=           0 DoJE=T BraDBF=F KetDBF=T FulRan=T
         wScrn=  0.000000 ICntrl=     500 IOpCl=  0 I1Cent=   200000004 NGrid=           0
         NMat0=    1 NMatS0=      1 NMatT0=    0 NMatD0=    1 NMtDS0=    0 NMtDT0=    0
 Petite list used in FoFCou.
 Harris En= -40.9975633438102    
 Leave Link  401 at Thu Sep  5 23:05:12 2019, MaxMem=  2684354560 cpu:         2.2
 (Enter /soft/gaussian/09-e.01/g09/l502.exe)
 UHF open shell SCF:
 Using DIIS extrapolation, IDIIS=  1040.
 Integral symmetry usage will be decided dynamically.
 Keep R1 and R2 ints in memory in canonical form, NReq=976418.
 IVT=        8268 IEndB=        8268 NGot=  2684354560 MDV=  2684240343
 LenX=  2684240343 LenY=  2684239277
 Requested convergence on RMS density matrix=1.00D-08 within  64 cycles.
 Requested convergence on MAX density matrix=1.00D-06.
 Requested convergence on             energy=1.00D-06.
 No special actions if energy rises.
 FoFCou: FMM=F IPFlag=           0 FMFlag=           0 FMFlg1=           0
         NFxFlg=           0 DoJE=F BraDBF=F KetDBF=F FulRan=T
         wScrn=  0.000000 ICntrl=     600 IOpCl=  0 I1Cent=           0 NGrid=           0
         NMat0=    1 NMatS0=    325 NMatT0=    0 NMatD0=    1 NMtDS0=    0 NMtDT0=    0
 Symmetry not used in FoFCou.
 Integral accuracy reduced to 1.0D-05 until final iterations.

 Cycle   1  Pass 0  IDiag  1:
 E= -41.0043548877453    
 DIIS: error= 1.53D-03 at cycle   1 NSaved=   1.
 NSaved= 1 IEnMin= 1 EnMin= -41.0043548877453     IErMin= 1 ErrMin= 1.53D-03
 ErrMax= 1.53D-03  0.00D+00 EMaxC= 1.00D-01 BMatC= 2.68D-04 BMatP= 2.68D-04
 IDIUse=3 WtCom= 9.85D-01 WtEn= 1.53D-02
 Coeff-Com:  0.100D+01
 Coeff-En:   0.100D+01
 Coeff:      0.100D+01
 Gap=     2.682 Goal=   None    Shift=    0.000
 Gap=     2.530 Goal=   None    Shift=    0.000
 GapD=    2.530 DampG=2.000 DampE=1.000 DampFc=2.0000 IDamp=-1.
 RMSDP=4.50D-04 MaxDP=3.11D-03              OVMax= 4.88D-03

 Cycle   2  Pass 0  IDiag  1:
 E= -41.0044519587455     Delta-E=       -0.000097071000 Rises=F Damp=F
 DIIS: error= 5.70D-04 at cycle   2 NSaved=   2.
 NSaved= 2 IEnMin= 2 EnMin= -41.0044519587455     IErMin= 2 ErrMin= 5.70D-04
 ErrMax= 5.70D-04  0.00D+00 EMaxC= 1.00D-01 BMatC= 3.11D-05 BMatP= 2.68D-04
 IDIUse=3 WtCom= 9.94D-01 WtEn= 5.70D-03
 Coeff-Com:  0.195D+00 0.805D+00
 Coeff-En:   0.000D+00 0.100D+01
 Coeff:      0.194D+00 0.806D+00
 Gap=     0.302 Goal=   None    Shift=    0.000
 Gap=     0.342 Goal=   None    Shift=    0.000
 RMSDP=1.57D-04 MaxDP=1.63D-03 DE=-9.71D-05 OVMax= 1.85D-03

 Cycle   3  Pass 0  IDiag  1:
 E= -41.0044586922076     Delta-E=       -0.000006733462 Rises=F Damp=F
 DIIS: error= 3.59D-04 at cycle   3 NSaved=   3.
 NSaved= 3 IEnMin= 3 EnMin= -41.0044586922076     IErMin= 3 ErrMin= 3.59D-04
 ErrMax= 3.59D-04  0.00D+00 EMaxC= 1.00D-01 BMatC= 7.40D-06 BMatP= 3.11D-05
 IDIUse=3 WtCom= 9.96D-01 WtEn= 3.59D-03
 Coeff-Com:  0.228D-01 0.322D+00 0.655D+00
 Coeff-En:   0.000D+00 0.305D-01 0.970D+00
 Coeff:      0.227D-01 0.321D+00 0.657D+00
 Gap=     0.303 Goal=   None    Shift=    0.000
 Gap=     0.341 Goal=   None    Shift=    0.000
 RMSDP=5.96D-05 MaxDP=6.08D-04 DE=-6.73D-06 OVMax= 6.26D-04

 Cycle   4  Pass 0  IDiag  1:
 E= -41.0044606841970     Delta-E=       -0.000001991989 Rises=F Damp=F
 DIIS: error= 6.62D-05 at cycle   4 NSaved=   4.
 NSaved= 4 IEnMin= 4 EnMin= -41.0044606841970     IErMin= 4 ErrMin= 6.62D-05
 ErrMax= 6.62D-05  0.00D+00 EMaxC= 1.00D-01 BMatC= 3.43D-07 BMatP= 7.40D-06
 IDIUse=1 WtCom= 1.00D+00 WtEn= 0.00D+00
 Coeff-Com: -0.115D-01 0.123D-01 0.180D+00 0.819D+00
 Coeff:     -0.115D-01 0.123D-01 0.180D+00 0.819D+00
 Gap=     0.302 Goal=   None    Shift=    0.000
 Gap=     0.341 Goal=   None    Shift=    0.000
 RMSDP=1.72D-05 MaxDP=1.68D-04 DE=-1.99D-06 OVMax= 2.08D-04

 Cycle   5  Pass 0  IDiag  1:
 E= -41.0044608052182     Delta-E=       -0.000000121021 Rises=F Damp=F
 DIIS: error= 1.48D-05 at cycle   5 NSaved=   5.
 NSaved= 5 IEnMin= 5 EnMin= -41.0044608052182     IErMin= 5 ErrMin= 1.48D-05
 ErrMax= 1.48D-05  0.00D+00 EMaxC= 1.00D-01 BMatC= 8.42D-09 BMatP= 3.43D-07
 IDIUse=1 WtCom= 1.00D+00 WtEn= 0.00D+00
 Coeff-Com:  0.794D-03-0.186D-01-0.575D-01-0.854D-01 0.116D+01
 Coeff:      0.794D-03-0.186D-01-0.575D-01-0.854D-01 0.116D+01
 Gap=     0.302 Goal=   None    Shift=    0.000
 Gap=     0.341 Goal=   None    Shift=    0.000
 RMSDP=7.19D-06 MaxDP=9.89D-05 DE=-1.21D-07 OVMax= 8.92D-05

 Initial convergence to 1.0D-05 achieved.  Increase integral accuracy.
 Cycle   6  Pass 1  IDiag  1:
 E= -41.0044603114068     Delta-E=        0.000000493811 Rises=F Damp=F
 DIIS: error= 2.17D-06 at cycle   1 NSaved=   1.
 NSaved= 1 IEnMin= 1 EnMin= -41.0044603114068     IErMin= 1 ErrMin= 2.17D-06
 ErrMax= 2.17D-06  0.00D+00 EMaxC= 1.00D-01 BMatC= 3.44D-10 BMatP= 3.44D-10
 IDIUse=1 WtCom= 1.00D+00 WtEn= 0.00D+00
 Coeff-Com:  0.100D+01
 Coeff:      0.100D+01
 Gap=     0.302 Goal=   None    Shift=    0.000
 Gap=     0.341 Goal=   None    Shift=    0.000
 RMSDP=7.19D-06 MaxDP=9.89D-05 DE= 4.94D-07 OVMax= 1.20D-05

 Cycle   7  Pass 1  IDiag  1:
 E= -41.0044603115724     Delta-E=       -0.000000000166 Rises=F Damp=F
 DIIS: error= 1.33D-06 at cycle   2 NSaved=   2.
 NSaved= 2 IEnMin= 2 EnMin= -41.0044603115724     IErMin= 2 ErrMin= 1.33D-06
 ErrMax= 1.33D-06  0.00D+00 EMaxC= 1.00D-01 BMatC= 6.47D-11 BMatP= 3.44D-10
 IDIUse=1 WtCom= 1.00D+00 WtEn= 0.00D+00
 Coeff-Com:  0.217D+00 0.783D+00
 Coeff:      0.217D+00 0.783D+00
 Gap=     0.302 Goal=   None    Shift=    0.000
 Gap=     0.341 Goal=   None    Shift=    0.000
 RMSDP=3.05D-07 MaxDP=2.95D-06 DE=-1.66D-10 OVMax= 3.62D-06

 Cycle   8  Pass 1  IDiag  1:
 E= -41.0044603115966     Delta-E=       -0.000000000024 Rises=F Damp=F
 DIIS: error= 4.28D-07 at cycle   3 NSaved=   3.
 NSaved= 3 IEnMin= 3 EnMin= -41.0044603115966     IErMin= 3 ErrMin= 4.28D-07
 ErrMax= 4.28D-07  0.00D+00 EMaxC= 1.00D-01 BMatC= 1.30D-11 BMatP= 6.47D-11
 IDIUse=1 WtCom= 1.00D+00 WtEn= 0.00D+00
 Coeff-Com: -0.458D-01 0.239D+00 0.807D+00
 Coeff:     -0.458D-01 0.239D+00 0.807D+00
 Gap=     0.302 Goal=   None    Shift=    0.000
 Gap=     0.341 Goal=   None    Shift=    0.000
 RMSDP=1.11D-07 MaxDP=9.28D-07 DE=-2.42D-11 OVMax= 1.17D-06

 Cycle   9  Pass 1  IDiag  1:
 E= -41.0044603116015     Delta-E=       -0.000000000005 Rises=F Damp=F
 DIIS: error= 1.85D-07 at cycle   4 NSaved=   4.
 NSaved= 4 IEnMin= 4 EnMin= -41.0044603116015     IErMin= 4 ErrMin= 1.85D-07
 ErrMax= 1.85D-07  0.00D+00 EMaxC= 1.00D-01 BMatC= 1.75D-12 BMatP= 1.30D-11
 IDIUse=1 WtCom= 1.00D+00 WtEn= 0.00D+00
 Coeff-Com: -0.387D-01-0.450D-02 0.269D+00 0.774D+00
 Coeff:     -0.387D-01-0.450D-02 0.269D+00 0.774D+00
 Gap=     0.302 Goal=   None    Shift=    0.000
 Gap=     0.341 Goal=   None    Shift=    0.000
 RMSDP=4.08D-08 MaxDP=3.36D-07 DE=-4.95D-12 OVMax= 6.11D-07

 Cycle  10  Pass 1  IDiag  1:
 E= -41.0044603116023     Delta-E=       -0.000000000001 Rises=F Damp=F
 DIIS: error= 8.59D-08 at cycle   5 NSaved=   5.
 NSaved= 5 IEnMin= 5 EnMin= -41.0044603116023     IErMin= 5 ErrMin= 8.59D-08
 ErrMax= 8.59D-08  0.00D+00 EMaxC= 1.00D-01 BMatC= 1.23D-13 BMatP= 1.75D-12
 IDIUse=1 WtCom= 1.00D+00 WtEn= 0.00D+00
 Coeff-Com:  0.460D-02-0.287D-01-0.102D+00-0.264D-02 0.113D+01
 Coeff:      0.460D-02-0.287D-01-0.102D+00-0.264D-02 0.113D+01
 Gap=     0.302 Goal=   None    Shift=    0.000
 Gap=     0.341 Goal=   None    Shift=    0.000
 RMSDP=2.06D-08 MaxDP=1.99D-07 DE=-8.17D-13 OVMax= 3.63D-07

 Cycle  11  Pass 1  IDiag  1:
 E= -41.0044603116024     Delta-E=       -0.000000000000 Rises=F Damp=F
 DIIS: error= 2.80D-08 at cycle   6 NSaved=   6.
 NSaved= 6 IEnMin= 6 EnMin= -41.0044603116024     IErMin= 6 ErrMin= 2.80D-08
 ErrMax= 2.80D-08  0.00D+00 EMaxC= 1.00D-01 BMatC= 1.20D-14 BMatP= 1.23D-13
 IDIUse=1 WtCom= 1.00D+00 WtEn= 0.00D+00
 Coeff-Com:  0.419D-02 0.166D-02-0.213D-01-0.725D-01-0.186D-01 0.111D+01
 Coeff:      0.419D-02 0.166D-02-0.213D-01-0.725D-01-0.186D-01 0.111D+01
 Gap=     0.302 Goal=   None    Shift=    0.000
 Gap=     0.341 Goal=   None    Shift=    0.000
 RMSDP=5.48D-09 MaxDP=6.48D-08 DE=-1.21D-13 OVMax= 1.27D-07

 SCF Done:  E(UB3LYP) =  -41.0044603116     A.U. after   11 cycles
            NFock= 11  Conv=0.55D-08     -V/T= 2.0131
 <Sx>= 0.0000 <Sy>= 0.0000 <Sz>= 0.5000 <S**2>= 0.7537 S= 0.5019
 <L.S>= 0.000000000000E+00
 KE= 4.047519630153D+01 PE=-1.206279794267D+02 EE= 2.578750197983D+01
 Annihilation of the first spin contaminant:
 S**2 before annihilation     0.7537,   after     0.7500
 Leave Link  502 at Thu Sep  5 23:05:12 2019, MaxMem=  2684354560 cpu:         6.3
 (Enter /soft/gaussian/09-e.01/g09/l508.exe)
 QCSCF skips out because SCF is already converged.
 Leave Link  508 at Thu Sep  5 23:05:12 2019, MaxMem=  2684354560 cpu:         0.0
 (Enter /soft/gaussian/09-e.01/g09/l701.exe)
 Compute integral first derivatives.
 ... and contract with generalized density number  0.
 Leave Link  701 at Thu Sep  5 23:05:13 2019, MaxMem=  2684354560 cpu:         1.4
 (Enter /soft/gaussian/09-e.01/g09/l702.exe)
 L702 exits ... SP integral derivatives will be done elsewhere.
 Leave Link  702 at Thu Sep  5 23:05:13 2019, MaxMem=  2684354560 cpu:         0.1
 (Enter /soft/gaussian/09-e.01/g09/l703.exe)
 Compute integral first derivatives, UseDBF=F ICtDFT=           0.
 Integral derivatives from FoFJK, PRISM(SPDF).
 Calling FoFJK, ICntrl=      2127 FMM=F ISym2X=0 I1Cent= 0 IOpClX= 1 NMat=1 NMatS=1 NMatT=0.
 FoFJK:  IHMeth= 1 ICntrl=    2127 DoSepK=F KAlg= 0 I1Cent=   0 FoldK=F
 IRaf=         0 NMat=   1 IRICut=       1 DoRegI=T DoRafI=F ISym2E= 0.
 FoFCou: FMM=F IPFlag=           0 FMFlag=      100000 FMFlg1=         800
         NFxFlg=           0 DoJE=F BraDBF=F KetDBF=F FulRan=T
         wScrn=  0.000000 ICntrl=    2127 IOpCl=  1 I1Cent=           0 NGrid=           0
         NMat0=    1 NMatS0=      1 NMatT0=    0 NMatD0=    1 NMtDS0=    0 NMtDT0=    0
 Symmetry not used in FoFCou.
 Leave Link  703 at Thu Sep  5 23:05:13 2019, MaxMem=  2684354560 cpu:         2.2
 (Enter /soft/gaussian/09-e.01/g09/l716.exe)
 Dipole        = 5.00568046D-02 3.46578147D-03-1.41705738D-03
 ***** Axes restored to original set *****
 -------------------------------------------------------------------
 Center     Atomic                   Forces (Hartrees/Bohr)
 Number     Number              X              Y              Z
 -------------------------------------------------------------------
      1        6           0.000218707    0.002744783    0.001439962
      2        1          -0.000091621   -0.000955644   -0.000645965
      3        1           0.000377878   -0.001077117   -0.000568628
      4        1          -0.000502715   -0.000940651   -0.000527743
      5        1           0.006335526    0.056362812    0.028680636
      6        1          -0.006337775   -0.056134183   -0.028378261
 -------------------------------------------------------------------
 Cartesian Forces:  Max     0.056362812 RMS     0.021147708
 -----------------------------------------------------------------------------------------------
                       Internal Coordinate Forces (Hartree/Bohr or radian)
  Cent   Atom   N1       Length/X         N2         Alpha/Y        N3         Beta/Z          J
 -----------------------------------------------------------------------------------------------
      1  C 
      2  H        1  -0.000646(     1)
      3  H        1   0.000610(     2)      2   0.000628(     7)
      4  H        1   0.000566(     3)      2   0.000582(     8)      3  -0.001789(    12)     0
      5  H        1   0.000239(     4)      2  -0.000234(     9)      3  -0.000125(    13)     0
         X        5   0.000000(     5)      1  -0.001232(    10)      2   0.000008(    14)     0
      6  H        5  -0.063214(     6)      6  -0.001232(    11)      1  -0.000013(    15)     0
 -----------------------------------------------------------------------------------------------
 Internal  Forces:  Max     0.063213878 RMS     0.016338505
 Leave Link  716 at Thu Sep  5 23:05:13 2019, MaxMem=  2684354560 cpu:         0.2
 (Enter /soft/gaussian/09-e.01/g09/l103.exe)

 GradGradGradGradGradGradGradGradGradGradGradGradGradGradGradGradGradGrad
 Berny optimization.
 Search for a local minimum.
 Step number   2 out of a maximum of   25
 All quantities printed in internal units (Hartrees-Bohrs-Radians)
 Update second derivatives using D2CorN and points    1    2
 DE= -4.44D-04 DEPred=-4.33D-04 R= 1.03D+00
 TightC=F SS=  1.41D+00  RLast= 5.85D-02 DXNew= 5.0454D-01 1.7561D-01
 Trust test= 1.03D+00 RLast= 5.85D-02 DXMaxT set to 3.00D-01
 The second derivative matrix:
                          R1        R2        A2        R3        A3
           R1           0.37739
           R2          -0.00512   0.34551
           A2          -0.00158   0.00176   0.31791
           R3          -0.00479   0.00479   0.00167   0.34576
           A3          -0.00135   0.00153   0.15375   0.00145   0.31699
           D3           0.00427  -0.00481   0.02626  -0.00456   0.01656
           R4           0.00067  -0.00054  -0.00169  -0.00049  -0.00160
           A4           0.00156  -0.00158  -0.00830  -0.00148  -0.00551
           D4          -0.00084   0.00074  -0.01292   0.00068   0.01101
           A6           0.00391  -0.00423   0.00217  -0.00400   0.00217
           D6           0.00002  -0.00003   0.00518  -0.00003  -0.00510
           A5           0.00467  -0.00495   0.00146  -0.00466   0.00152
           D5          -0.00003   0.00003  -0.00230   0.00003   0.00229
           R5          -0.00000   0.00000  -0.00000   0.00000  -0.00000
           R6           0.00010  -0.00010   0.00003  -0.00010   0.00003
                          D3        R4        A4        D4        A6
           D3           0.14388
           R4           0.00488   0.01632
           A4           0.06916   0.00033   0.23837
           D4          -0.12509   0.00069   0.00005   0.24172
           A6          -0.00652   0.00306   0.00092  -0.00245   0.15722
           D6          -0.00043   0.00004  -0.00026   0.00075  -0.00043
           A5          -0.00451   0.00281   0.00119  -0.00233   0.15861
           D5           0.00017  -0.00002   0.00011  -0.00033  -0.00005
           R5           0.00000  -0.00000  -0.00000   0.00000   0.00000
           R6          -0.00009   0.00006   0.00002  -0.00005  -0.00003
                          D6        A5        D5        R5        R6
           D6           0.03462
           A5          -0.00044   0.16000
           D5          -0.01546  -0.00005   0.00690
           R5           0.00000   0.00000  -0.00000   0.00000
           R6          -0.00000   0.00000  -0.00000  -0.00000   0.24791
 ITU=  1  0
     Eigenvalues ---    0.01537   0.03419   0.04009   0.15741   0.16164
     Eigenvalues ---    0.24005   0.34000   0.34089   0.35112   0.37994
     Eigenvalues ---    0.474981000.000001000.000001000.000001000.00000
 RFO step:  Lambda=-9.17145054D-05 EMin= 1.53691307D-02
 Quartic linear search produced a step of  0.02346.
 Variable       Old X    -DE/DX   Delta X   Delta X   Delta X     New X
                                 (Linear)    (Quad)   (Total)
    R1        2.04811  -0.00065   0.00061  -0.00191  -0.00130   2.04680
    R2        2.04495   0.00061  -0.00065   0.00188   0.00123   2.04618
    A2        2.08877   0.00063   0.00019   0.00289   0.00308   2.09185
    R3        2.04505   0.00057  -0.00061   0.00174   0.00112   2.04617
    A3        2.08929   0.00058   0.00020   0.00311   0.00332   2.09261
    D3        3.29769  -0.00179  -0.00059  -0.03601  -0.03660   3.26109
    R4        5.00836   0.00024   0.00037   0.02845   0.02882   5.03718
    A4        1.52903  -0.00023   0.00016   0.00967   0.00983   1.53886
    D4        4.82327  -0.00013  -0.00031  -0.01933  -0.01963   4.80364
    A6        1.98288  -0.00123  -0.00018  -0.01017  -0.01035   1.97252
    D6        3.13993  -0.00001  -0.00001  -0.00046  -0.00046   3.13947
    A5        1.57080  -0.00123   0.00000   0.00000   0.00000   1.57080
    D5        3.14159   0.00001   0.00000   0.00000   0.00000   3.14159
    R5        1.88973   0.00000   0.00000   0.00000   0.00000   1.88973
    R6        1.66844  -0.06321   0.00000   0.00000   0.00000   1.66844
         Item               Value     Threshold  Converged?
 Maximum Force            0.001789     0.000450     NO 
 RMS     Force            0.000780     0.000300     NO 
 Maximum Displacement     0.036599     0.001800     NO 
 RMS     Displacement     0.013625     0.001200     NO 
 Predicted change in Energy=-4.543322D-05
 Lowest energy point so far.  Saving SCF results.
 GradGradGradGradGradGradGradGradGradGradGradGradGradGradGradGradGradGrad

 Leave Link  103 at Thu Sep  5 23:05:13 2019, MaxMem=  2684354560 cpu:         0.2
 (Enter /soft/gaussian/09-e.01/g09/l202.exe)
 ---------------------------------------------------------------------------------------------------
                            Z-MATRIX (ANGSTROMS AND DEGREES)
   CD    Cent   Atom    N1       Length/X        N2       Alpha/Y        N3        Beta/Z          J
 ---------------------------------------------------------------------------------------------------
      1      1  C 
      2      2  H        1   1.083122(     1)
      3      3  H        1   1.082792(     2)      2  119.854(     7)
      4      4  H        1   1.082787(     3)      2  119.897(     8)      3  186.846(    12)      0
      5      5  H        1   2.665559(     4)      2   88.170(     9)      3  275.228(    13)      0
      6         X        5   1.000000(     5)      1   90.000(    10)      2  180.000(    14)      0
      7      6  H        5   0.882900(     6)      6  113.017(    11)      1  179.878(    15)      0
 ---------------------------------------------------------------------------------------------------
                         Z-Matrix orientation:                         
 ---------------------------------------------------------------------
 Center     Atomic      Atomic             Coordinates (Angstroms)
 Number     Number       Type             X           Y           Z
 ---------------------------------------------------------------------
      1          6           0        0.000000    0.000000    0.000000
      2          1           0        0.000000    0.000000    1.083122
      3          1           0        0.939100    0.000000   -0.539008
      4          1           0       -0.931994    0.111901   -0.539714
      5          1           0        0.242764    2.653116    0.085121
      6         -1           0        0.245674    2.684917   -0.914369
      7          1           0        0.317489    3.450794    0.456117
 ---------------------------------------------------------------------
                    Distance matrix (angstroms):
                    1          2          3          4          5
     1  C    0.000000
     2  H    1.083122   0.000000
     3  H    1.082792   1.874357   0.000000
     4  H    1.082787   1.874762   1.874438   0.000000
     5  H    2.665559   2.844989   2.813084   2.868493   0.000000
     6  X    2.846964   3.355459   2.798305   2.854414   1.000000
     7  H    3.495257   3.521635   3.644812   3.701500   0.882900
                    6          7
     6  X    0.000000
     7  H    1.571610   0.000000
 Stoichiometry    CH5(2)
 Framework group  C1[X(CH5)]
 Deg. of freedom    12
 Full point group                 C1      NOp   1
 RotChk:  IX=1 Diff= 4.02D-02
 Largest Abelian subgroup         C1      NOp   1
 Largest concise Abelian subgroup C1      NOp   1
                         Standard orientation:                         
 ---------------------------------------------------------------------
 Center     Atomic      Atomic             Coordinates (Angstroms)
 Number     Number       Type             X           Y           Z
 ---------------------------------------------------------------------
      1          6           0        0.569501   -0.009278    0.003436
      2          1           0        0.457134   -1.082858    0.092603
      3          1           0        0.536164    0.611635    0.889886
      4          1           0        0.603285    0.450317   -0.976390
      5          1           0       -2.089127    0.180811   -0.024269
      6          1           0       -2.924461   -0.104239   -0.002443
 ---------------------------------------------------------------------
 Rotational constants (GHZ):    141.3202111     26.7809754     26.7248464
 Leave Link  202 at Thu Sep  5 23:05:13 2019, MaxMem=  2684354560 cpu:         0.1
 (Enter /soft/gaussian/09-e.01/g09/l301.exe)
 Standard basis: 6-31G(d) (6D, 7F)
 Ernie: Thresh=  0.10000D-02 Tol=  0.10000D-05 Strict=F.
 There are    25 symmetry adapted cartesian basis functions of A   symmetry.
 There are    25 symmetry adapted basis functions of A   symmetry.
    25 basis functions,    48 primitive gaussians,    25 cartesian basis functions
     6 alpha electrons        5 beta electrons
       nuclear repulsion energy        13.3388087079 Hartrees.
 IExCor=  402 DFT=T Ex+Corr=B3LYP ExCW=0 ScaHFX=  0.200000
 ScaDFX=  0.800000  0.720000  1.000000  0.810000 ScalE2=  1.000000  1.000000
 IRadAn=      5 IRanWt=     -1 IRanGd=            0 ICorTp=0 IEmpDi=  4
 NAtoms=    6 NActive=    6 NUniq=    6 SFac= 1.00D+00 NAtFMM=   60 NAOKFM=F Big=F
 Integral buffers will be    131072 words long.
 Raffenetti 2 integral format.
 Two-electron integral symmetry is turned on.
 Leave Link  301 at Thu Sep  5 23:05:13 2019, MaxMem=  2684354560 cpu:         0.5
 (Enter /soft/gaussian/09-e.01/g09/l302.exe)
 NPDir=0 NMtPBC=     1 NCelOv=     1 NCel=       1 NClECP=     1 NCelD=      1
         NCelK=      1 NCelE2=     1 NClLst=     1 CellRange=     0.0.
 One-electron integrals computed using PRISM.
 NBasis=    25 RedAO= T EigKep=  2.66D-02  NBF=    25
 NBsUse=    25 1.00D-06 EigRej= -1.00D+00 NBFU=    25
 Precomputing XC quadrature grid using
 IXCGrd= 4 IRadAn=           5 IRanWt=          -1 IRanGd=           0 AccXCQ= 0.00D+00.
 Generated NRdTot=       0 NPtTot=           0 NUsed=           0 NTot=          32
 NSgBfM=    25    25    25    25    25 MxSgAt=     6 MxSgA2=     6.
 Leave Link  302 at Thu Sep  5 23:05:13 2019, MaxMem=  2684354560 cpu:         1.6
 (Enter /soft/gaussian/09-e.01/g09/l303.exe)
 DipDrv:  MaxL=1.
 Leave Link  303 at Thu Sep  5 23:05:13 2019, MaxMem=  2684354560 cpu:         0.2
 (Enter /soft/gaussian/09-e.01/g09/l401.exe)
 Initial guess from the checkpoint file:  "/blues/gpfs/home/elliott/Packages/PACC/moldriver/rcdriver/tmprundir/RXN/CH3.H2/MDUSDFXREFXETQ/0_0/2_1/UHFFFAOYSA-N/CH4.H/HXBDELFRWIQQII/0_0/1_2/UHFFFAOYSA-N/2/ezvlpJU/SCANS/R6/01/RUN/OPTI/A01/Gau-149740.chk"
 B after Tr=     0.000000   -0.000000    0.000000
         Rot=    0.999972   -0.007498   -0.000188   -0.000173 Ang=  -0.86 deg.
 Guess basis will be translated and rotated to current coordinates.
 JPrj=2 DoOrth=T DoCkMO=T.
 Initial guess <Sx>= 0.0000 <Sy>= 0.0000 <Sz>= 0.5000 <S**2>= 0.7537 S= 0.5019
 Generating alternative initial guess.
 ExpMin= 1.61D-01 ExpMax= 3.05D+03 ExpMxC= 4.57D+02 IAcc=2 IRadAn=         4 AccDes= 0.00D+00
 Harris functional with IExCor=  402 and IRadAn=       4 diagonalized for initial guess.
 HarFok:  IExCor=  402 AccDes= 0.00D+00 IRadAn=         4 IDoV= 1 UseB2=F ITyADJ=14
 ICtDFT=  3500011 ScaDFX=  1.000000  1.000000  1.000000  1.000000
 FoFCou: FMM=F IPFlag=           0 FMFlag=      100000 FMFlg1=           0
         NFxFlg=           0 DoJE=T BraDBF=F KetDBF=T FulRan=T
         wScrn=  0.000000 ICntrl=     500 IOpCl=  0 I1Cent=   200000004 NGrid=           0
         NMat0=    1 NMatS0=      1 NMatT0=    0 NMatD0=    1 NMtDS0=    0 NMtDT0=    0
 Petite list used in FoFCou.
 Harris En= -40.9976345430300    
 Leave Link  401 at Thu Sep  5 23:05:13 2019, MaxMem=  2684354560 cpu:         2.0
 (Enter /soft/gaussian/09-e.01/g09/l502.exe)
 UHF open shell SCF:
 Using DIIS extrapolation, IDIIS=  1040.
 Integral symmetry usage will be decided dynamically.
 Keep R1 and R2 ints in memory in canonical form, NReq=976418.
 IVT=        8268 IEndB=        8268 NGot=  2684354560 MDV=  2684240343
 LenX=  2684240343 LenY=  2684239277
 Requested convergence on RMS density matrix=1.00D-08 within  64 cycles.
 Requested convergence on MAX density matrix=1.00D-06.
 Requested convergence on             energy=1.00D-06.
 No special actions if energy rises.
 FoFCou: FMM=F IPFlag=           0 FMFlag=           0 FMFlg1=           0
         NFxFlg=           0 DoJE=F BraDBF=F KetDBF=F FulRan=T
         wScrn=  0.000000 ICntrl=     600 IOpCl=  0 I1Cent=           0 NGrid=           0
         NMat0=    1 NMatS0=    325 NMatT0=    0 NMatD0=    1 NMtDS0=    0 NMtDT0=    0
 Symmetry not used in FoFCou.
 Integral accuracy reduced to 1.0D-05 until final iterations.

 Cycle   1  Pass 0  IDiag  1:
 E= -41.0045105242834    
 DIIS: error= 1.45D-03 at cycle   1 NSaved=   1.
 NSaved= 1 IEnMin= 1 EnMin= -41.0045105242834     IErMin= 1 ErrMin= 1.45D-03
 ErrMax= 1.45D-03  0.00D+00 EMaxC= 1.00D-01 BMatC= 6.57D-05 BMatP= 6.57D-05
 IDIUse=3 WtCom= 9.86D-01 WtEn= 1.45D-02
 Coeff-Com:  0.100D+01
 Coeff-En:   0.100D+01
 Coeff:      0.100D+01
 Gap=     2.674 Goal=   None    Shift=    0.000
 Gap=     2.527 Goal=   None    Shift=    0.000
 GapD=    2.527 DampG=2.000 DampE=1.000 DampFc=2.0000 IDamp=-1.
 RMSDP=2.35D-04 MaxDP=2.38D-03              OVMax= 3.91D-03

 Cycle   2  Pass 0  IDiag  1:
 E= -41.0045410955355     Delta-E=       -0.000030571252 Rises=F Damp=F
 DIIS: error= 3.79D-04 at cycle   2 NSaved=   2.
 NSaved= 2 IEnMin= 2 EnMin= -41.0045410955355     IErMin= 2 ErrMin= 3.79D-04
 ErrMax= 3.79D-04  0.00D+00 EMaxC= 1.00D-01 BMatC= 3.08D-06 BMatP= 6.57D-05
 IDIUse=3 WtCom= 9.96D-01 WtEn= 3.79D-03
 Coeff-Com:  0.333D-01 0.967D+00
 Coeff-En:   0.000D+00 0.100D+01
 Coeff:      0.332D-01 0.967D+00
 Gap=     0.302 Goal=   None    Shift=    0.000
 Gap=     0.341 Goal=   None    Shift=    0.000
 RMSDP=1.30D-04 MaxDP=1.92D-03 DE=-3.06D-05 OVMax= 1.68D-03

 Cycle   3  Pass 0  IDiag  1:
 E= -41.0045429775655     Delta-E=       -0.000001882030 Rises=F Damp=F
 DIIS: error= 1.43D-04 at cycle   3 NSaved=   3.
 NSaved= 3 IEnMin= 3 EnMin= -41.0045429775655     IErMin= 3 ErrMin= 1.43D-04
 ErrMax= 1.43D-04  0.00D+00 EMaxC= 1.00D-01 BMatC= 4.51D-07 BMatP= 3.08D-06
 IDIUse=3 WtCom= 9.99D-01 WtEn= 1.43D-03
 Coeff-Com: -0.552D-01 0.951D-01 0.960D+00
 Coeff-En:   0.000D+00 0.000D+00 0.100D+01
[...]
      4  H        1  -0.000008(     3)      2   0.000026(     8)      3   0.000053(    12)     0
      5  H        1  -0.000064(     4)      2   0.000170(     9)      3  -0.000080(    13)     0
         X        5   0.000000(     5)      1  -0.000001(    10)      2  -0.000000(    14)     0
      6  H        5  -0.062687(     6)      6  -0.000001(    11)      1   0.000003(    15)     0
 -----------------------------------------------------------------------------------------------
 Internal  Forces:  Max     0.062687116 RMS     0.016185835
 Leave Link  716 at Thu Sep  5 23:05:50 2019, MaxMem=  2684354560 cpu:         0.2
 (Enter /soft/gaussian/09-e.01/g09/l103.exe)

 GradGradGradGradGradGradGradGradGradGradGradGradGradGradGradGradGradGrad
 Berny optimization.
 Search for a local minimum.
 Step number  25 out of a maximum of   25
 All quantities printed in internal units (Hartrees-Bohrs-Radians)
 Update second derivatives using D2CorN and points   13   14   15   16   17
                                                         18   19   21   20   22

                                                         23   24   25
 DE= -1.34D-06 DEPred=-6.87D-07 R= 1.95D+00
 TightC=F SS=  1.41D+00  RLast= 2.04D-02 DXNew= 4.8968D-01 6.1069D-02
 Trust test= 1.95D+00 RLast= 2.04D-02 DXMaxT set to 2.91D-01
 The second derivative matrix:
                          R1        R2        A2        R3        A3
           R1           0.38009
           R2          -0.00500   0.34643
           A2           0.00887  -0.00454   0.24763
           R3          -0.00478   0.00556  -0.00459   0.34640
           A3           0.00906  -0.00466   0.08265  -0.00468   0.24470
           D3           0.00248  -0.00132  -0.00204  -0.00124  -0.00533
           R4          -0.00231   0.00266  -0.00988   0.00264  -0.00289
           A4           0.00409  -0.00193  -0.00382  -0.00201   0.00246
           D4          -0.00269   0.00632  -0.02936   0.00596  -0.01013
           A6           0.00177  -0.00141   0.00558  -0.00139  -0.00027
           D6           0.00045   0.00157  -0.00135   0.00141  -0.01005
           A5           0.00916  -0.00111  -0.01187  -0.00097  -0.01196
           D5          -0.00012   0.00003  -0.00204   0.00004   0.00246
           R5           0.00000   0.00000   0.00000   0.00000   0.00000
           R6           0.00007  -0.00011   0.00004  -0.00010  -0.00001
                          D3        R4        A4        D4        A6
           D3           0.03174
           R4          -0.02302   0.03708
           A4           0.00977  -0.05036   0.20619
           D4          -0.06241   0.05771   0.02616   0.19431
           A6           0.01522  -0.01947   0.01137  -0.04563   0.01625
           D6          -0.01055   0.00380  -0.01790   0.01145  -0.00053
           A5           0.00684  -0.00733  -0.00415  -0.02858   0.01244
           D5           0.00263   0.00229   0.00098  -0.00085  -0.00135
           R5           0.00000   0.00000  -0.00000   0.00000  -0.00000
           R6           0.00110   0.00302   0.00077  -0.00061   0.00063
                          D6        A5        D5        R5        R6
           D6           0.03379
           A5           0.00179   0.16000
           D5          -0.01434  -0.00005   0.00690
           R5          -0.00000   0.00000  -0.00000   0.00000
           R6           0.00059   0.00000  -0.00000  -0.00000   0.24791
 ITU=  1  1  0  0 -1  0  1  1  1  0  0  0  0  0  0  0
     Eigenvalues ---    0.00193   0.00315   0.00752   0.03329   0.16105
     Eigenvalues ---    0.22458   0.24171   0.32989   0.34086   0.35362
     Eigenvalues ---    0.387001000.000001000.000001000.000001000.00000
 RFO step:  Lambda=-2.32154635D-07 EMin= 1.92894763D-03
 Quartic linear search produced a step of  0.70771.
 Variable       Old X    -DE/DX   Delta X   Delta X   Delta X     New X
                                 (Linear)    (Quad)   (Total)
    R1        2.04623  -0.00000  -0.00003   0.00001  -0.00001   2.04622
    R2        2.04625  -0.00001  -0.00001   0.00000  -0.00001   2.04624
    A2        2.09301   0.00004   0.00021  -0.00009   0.00012   2.09313
    R3        2.04625  -0.00001  -0.00001  -0.00000  -0.00001   2.04623
    A3        2.09321   0.00003   0.00014  -0.00007   0.00008   2.09329
    D3        3.05289   0.00005   0.00266  -0.00109   0.00157   3.05446
    R4        4.91493  -0.00006   0.00998  -0.00470   0.00528   4.92021
    A4        1.55653   0.00017   0.00384  -0.00022   0.00363   1.56016
    D4        4.68785  -0.00008  -0.00468   0.00007  -0.00460   4.68325
    A6        1.58000  -0.00000  -0.00723  -0.00300  -0.01023   1.56978
    D6        3.13616   0.00000   0.00343  -0.00014   0.00330   3.13946
    A5        1.57080  -0.00000   0.00000   0.00000   0.00000   1.57080
    D5        3.14159  -0.00000   0.00000   0.00000   0.00000   3.14159
    R5        1.88973   0.00000   0.00000   0.00000   0.00000   1.88973
    R6        1.66844  -0.06269   0.00000   0.00000   0.00000   1.66844
         Item               Value     Threshold  Converged?
 Maximum Force            0.000170     0.000450     YES
 RMS     Force            0.000063     0.000300     YES
 Maximum Displacement     0.010226     0.001800     NO 
 RMS     Displacement     0.003466     0.001200     NO 
 Predicted change in Energy=-3.531217D-07
 Optimization stopped.
    -- Number of steps exceeded,  NStep=  25
    -- Flag reset to prevent archiving.
                       ----------------------------
                       ! Non-Optimized Parameters !
                       ! (Angstroms and Degrees)  !
 ----------------------                            ----------------------
 !      Name          Value   Derivative information (Atomic Units)     !
 ------------------------------------------------------------------------
 !       R1          1.0828   -DE/DX =    0.0                           !
 !       R2          1.0828   -DE/DX =    0.0                           !
 !       A2        119.9276   -DE/DX =    0.0                           !
 !       R3          1.0828   -DE/DX =    0.0                           !
 !       A3        119.9369   -DE/DX =    0.0                           !
 !       D3        175.0075   -DE/DX =    0.0001                        !
 !       R4          2.6037   -DE/DX =   -0.0001                        !
 !       A4         89.3903   -DE/DX =    0.0002                        !
 !       D4        268.3303   -DE/DX =   -0.0001                        !
 !       A6         89.9417   -DE/DX =    0.0                           !
 !       D6        179.8777   -DE/DX =    0.0                           !
 !       A5         90.0      -DE/DX =    0.0                           !
 !       D5        180.0      -DE/DX =    0.0                           !
 !       R5          1.0      -DE/DX =    0.0                           !
 !       R6          0.8829   -DE/DX =   -0.0627                        !
 ------------------------------------------------------------------------
 Lowest energy point so far.  Saving SCF results.
 GradGradGradGradGradGradGradGradGradGradGradGradGradGradGradGradGradGrad

 Largest change from initial coordinates is atom    4       0.130 Angstoms.
 Leave Link  103 at Thu Sep  5 23:05:50 2019, MaxMem=  2684354560 cpu:         0.2
 (Enter /soft/gaussian/09-e.01/g09/l202.exe)
 ---------------------------------------------------------------------------------------------------
                            Z-MATRIX (ANGSTROMS AND DEGREES)
   CD    Cent   Atom    N1       Length/X        N2       Alpha/Y        N3        Beta/Z          J
 ---------------------------------------------------------------------------------------------------
      1      1  C 
      2      2  H        1   1.082818(     1)
      3      3  H        1   1.082827(     2)      2  119.921(     7)
      4      4  H        1   1.082828(     3)      2  119.932(     8)      3  174.917(    12)      0
      5      5  H        1   2.600867(     4)      2   89.183(     9)      3  268.594(    13)      0
      6         X        5   1.000000(     5)      1   90.000(    10)      2  180.000(    14)      0
      7      6  H        5   0.882900(     6)      6   90.528(    11)      1  179.689(    15)      0
 ---------------------------------------------------------------------------------------------------
                         Z-Matrix orientation:                         
 ---------------------------------------------------------------------
 Center     Atomic      Atomic             Coordinates (Angstroms)
 Number     Number       Type             X           Y           Z
 ---------------------------------------------------------------------
      1          6           0        0.000000    0.000000    0.000000
      2          1           0        0.000000    0.000000    1.082818
      3          1           0        0.938506    0.000000   -0.540112
      4          1           0       -0.934706   -0.083133   -0.540306
      5          1           0       -0.063806    2.599820    0.037106
      6         -1           0       -0.064156    2.614082   -0.962793
      7          1           0       -0.080669    3.482315    0.057830
 ---------------------------------------------------------------------
                    Distance matrix (angstroms):
                    1          2          3          4          5
     1  C    0.000000
     2  H    1.082818   0.000000
     3  H    1.082827   1.874752   0.000000
     4  H    1.082828   1.874865   1.875055   0.000000
     5  H    2.600867   2.802971   2.845500   2.879254   0.000000
     6  X    2.786487   3.319950   2.831504   2.865540   1.000000
     7  H    3.483729   3.630927   3.677332   3.714776   0.882900
                    6          7
     6  X    0.000000
     7  H    1.340064   0.000000
 Stoichiometry    CH5(2)
 Framework group  C1[X(CH5)]
 Deg. of freedom    12
 Full point group                 C1      NOp   1
 RotChk:  IX=0 Diff= 3.85D-16
 Largest Abelian subgroup         C1      NOp   1
 Largest concise Abelian subgroup C1      NOp   1
                         Standard orientation:                         
 ---------------------------------------------------------------------
 Center     Atomic      Atomic             Coordinates (Angstroms)
 Number     Number       Type             X           Y           Z
 ---------------------------------------------------------------------
      1          6           0        0.545578    0.000221    0.002843
      2          1           0        0.522965   -0.411669    1.004008
      3          1           0        0.576643    1.073246   -0.139165
      4          1           0        0.620252   -0.660597   -0.851709
      5          1           0       -2.055217   -0.001526   -0.016487
      6          1           0       -2.938112   -0.000778   -0.013706
 ---------------------------------------------------------------------
 Rotational constants (GHZ):    142.8213951     27.0612900     27.0549036
 Leave Link  202 at Thu Sep  5 23:05:50 2019, MaxMem=  2684354560 cpu:         0.1
 (Enter /soft/gaussian/09-e.01/g09/l601.exe)
 Copying SCF densities to generalized density rwf, IOpCl= 1 IROHF=0.

 **********************************************************************

            Population analysis using the SCF density.

 **********************************************************************

 Orbital symmetries:
 Alpha Orbitals:
       Occupied  (A) (A) (A) (A) (A) (A)
       Virtual   (A) (A) (A) (A) (A) (A) (A) (A) (A) (A) (A) (A)
                 (A) (A) (A) (A) (A) (A) (A)
 Beta  Orbitals:
       Occupied  (A) (A) (A) (A) (A)
       Virtual   (A) (A) (A) (A) (A) (A) (A) (A) (A) (A) (A) (A)
                 (A) (A) (A) (A) (A) (A) (A) (A)
 The electronic state is 2-A.
 Alpha  occ. eigenvalues --  -10.19768  -0.68671  -0.42136  -0.42131  -0.40095
 Alpha  occ. eigenvalues --   -0.22871
 Alpha virt. eigenvalues --    0.07936   0.11333   0.17848   0.17850   0.54002
 Alpha virt. eigenvalues --    0.54009   0.54970   0.62378   0.78098   0.90966
 Alpha virt. eigenvalues --    0.90970   0.95942   1.11842   1.64452   1.64468
 Alpha virt. eigenvalues --    2.00563   2.18167   2.18195   4.08975
  Beta  occ. eigenvalues --  -10.18380  -0.64678  -0.41191  -0.41185  -0.39779
  Beta virt. eigenvalues --   -0.06128   0.09117   0.12953   0.18396   0.18399
  Beta virt. eigenvalues --    0.54823   0.54829   0.60329   0.65049   0.79920
  Beta virt. eigenvalues --    0.91451   0.91454   0.98473   1.12464   1.71448
  Beta virt. eigenvalues --    1.71463   2.09045   2.19285   2.19313   4.12656
          Condensed to atoms (all electrons):
               1          2          3          4          5          6
     1  C    5.337468   0.380036   0.380060   0.380074   0.014524  -0.005486
     2  H    0.380036   0.510409  -0.029429  -0.029403   0.000069   0.000023
     3  H    0.380060  -0.029429   0.510495  -0.029371   0.000045   0.000036
     4  H    0.380074  -0.029403  -0.029371   0.510577   0.000029   0.000044
     5  H    0.014524   0.000069   0.000045   0.000029   0.612602   0.367868
     6  H   -0.005486   0.000023   0.000036   0.000044   0.367868   0.660213
          Atomic-Atomic Spin Densities.
               1          2          3          4          5          6
     1  C    1.146544  -0.009030  -0.009005  -0.008990   0.012341  -0.005970
     2  H   -0.009030  -0.043174   0.000956   0.000953  -0.000062   0.000020
     3  H   -0.009005   0.000956  -0.043215   0.000951  -0.000059   0.000016
     4  H   -0.008990   0.000953   0.000951  -0.043247  -0.000057   0.000014
     5  H    0.012341  -0.000062  -0.000059  -0.000057  -0.014593  -0.009222
     6  H   -0.005970   0.000020   0.000016   0.000014  -0.009222   0.051968
 Mulliken charges and spin densities:
               1          2
     1  C   -0.486676   1.125891
     2  H    0.168296  -0.050336
     3  H    0.168165  -0.050355
     4  H    0.168049  -0.050375
     5  H    0.004864  -0.011650
     6  H   -0.022697   0.036826
 Sum of Mulliken charges =  -0.00000   1.00000
 Mulliken charges and spin densities with hydrogens summed into heavy atoms:
               1          2
     1  C   -0.000000   1.000000
 Electronic spatial extent (au):  <R**2>=             90.0742
 Charge=             -0.0000 electrons
 Dipole moment (field-independent basis, Debye):
    X=              0.3614    Y=              0.0004    Z=              0.0055  Tot=              0.3615
 Quadrupole moment (field-independent basis, Debye-Ang):
   XX=            -10.8532   YY=             -9.1710   ZZ=             -9.1756
   XY=             -0.0067   XZ=             -0.0880   YZ=             -0.0001
 Traceless Quadrupole moment (field-independent basis, Debye-Ang):
   XX=             -1.1199   YY=              0.5623   ZZ=              0.5576
   XY=             -0.0067   XZ=             -0.0880   YZ=             -0.0001
 Octapole moment (field-independent basis, Debye-Ang**2):
  XXX=              0.8160  YYY=              0.7590  ZZZ=              0.3586  XYY=              1.7766
  XXY=             -0.0066  XXZ=             -0.0777  XZZ=              1.7458  YZZ=             -0.7528
  YYZ=             -0.3051  XYZ=              0.0404
 Hexadecapole moment (field-independent basis, Debye-Ang**3):
 XXXX=            -98.3160 YYYY=            -15.9573 ZZZZ=            -15.9473 XXXY=             -0.0239
 XXXZ=             -0.1970 YYYX=              0.4267 YYYZ=              0.0032 ZZZX=             -0.0224
 ZZZY=             -0.0116 XXYY=            -21.0824 XXZZ=            -21.1108 YYZZ=             -5.3225
 XXYZ=              0.0475 YYXZ=             -0.2558 ZZXY=             -0.4456
 N-N= 1.336552701774D+01 E-N=-1.206315547744D+02  KE= 4.047319593488D+01
                          Isotropic Fermi Contact Couplings
        Atom                 a.u.       MegaHertz       Gauss      10(-4) cm-1
     1  C(13)              0.10804     121.45780      43.33916      40.51396
     2  H(1)              -0.01550     -69.29504     -24.72619     -23.11434
     3  H(1)              -0.01550     -69.30228     -24.72878     -23.11675
     4  H(1)              -0.01551     -69.30584     -24.73004     -23.11794
     5  H(1)              -0.00403     -18.03323      -6.43470      -6.01524
     6  H(1)               0.01171      52.34524      18.67808      17.46049
 --------------------------------------------------------
       Center         ----  Spin Dipole Couplings  ----
                      3XX-RR        3YY-RR        3ZZ-RR
 --------------------------------------------------------
     1   Atom        1.071743     -0.538039     -0.533704
     2   Atom       -0.005560     -0.050104      0.055664
     3   Atom       -0.005666      0.074543     -0.068877
     4   Atom       -0.005207     -0.016180      0.021386
     5   Atom        0.031472     -0.015734     -0.015738
     6   Atom        0.006173     -0.003086     -0.003087
 --------------------------------------------------------
                        XY            XZ            YZ
 --------------------------------------------------------
     1   Atom        0.006151      0.083711      0.000316
     2   Atom        0.001952     -0.000705     -0.052332
     3   Atom        0.003169      0.003035     -0.019415
     4   Atom       -0.005220     -0.003659      0.071754
     5   Atom       -0.000007     -0.000087      0.000007
     6   Atom        0.000001     -0.000009      0.000002
 --------------------------------------------------------


 ---------------------------------------------------------------------------------
              Anisotropic Spin Dipole Couplings in Principal Axis System
 ---------------------------------------------------------------------------------

       Atom             a.u.   MegaHertz   Gauss  10(-4) cm-1        Axes

              Baa    -0.5381   -72.203   -25.764   -24.084 -0.0267  0.8942  0.4468
     1 C(13)  Bbb    -0.5381   -72.202   -25.763   -24.084 -0.0447 -0.4476  0.8931
              Bcc     1.0761   144.405    51.527    48.168  0.9986  0.0038  0.0519
 
              Baa    -0.0717   -38.232   -13.642   -12.753 -0.0233  0.9247  0.3800
     2 H(1)   Bbb    -0.0055    -2.960    -1.056    -0.987  0.9996  0.0151  0.0244
              Bcc     0.0772    41.192    14.698    13.740 -0.0168 -0.3804  0.9247
 
              Baa    -0.0716   -38.222   -13.638   -12.749 -0.0519  0.1326  0.9898
     3 H(1)   Bbb    -0.0056    -2.977    -1.062    -0.993  0.9981 -0.0260  0.0558
              Bcc     0.0772    41.198    14.701    13.742  0.0331  0.9908 -0.1310
 
              Baa    -0.0716   -38.215   -13.636   -12.747  0.0286  0.7920 -0.6099
     4 H(1)   Bbb    -0.0056    -2.989    -1.067    -0.997  0.9969  0.0223  0.0758
              Bcc     0.0772    41.204    14.702    13.744 -0.0737  0.6101  0.7889
 
              Baa    -0.0157    -8.400    -2.997    -2.802  0.0014 -0.5907  0.8069
     5 H(1)   Bbb    -0.0157    -8.392    -2.994    -2.799  0.0012  0.8069  0.5907
              Bcc     0.0315    16.792     5.992     5.601  1.0000 -0.0002 -0.0018
 
              Baa    -0.0031    -1.648    -0.588    -0.550  0.0008 -0.6234  0.7819
     6 H(1)   Bbb    -0.0031    -1.646    -0.587    -0.549  0.0005  0.7819  0.6234
              Bcc     0.0062     3.294     1.175     1.099  1.0000  0.0001 -0.0009
 

 ---------------------------------------------------------------------------------

 No NMR shielding tensors so no spin-rotation constants.
 Leave Link  601 at Thu Sep  5 23:05:50 2019, MaxMem=  2684354560 cpu:         2.8
 (Enter /soft/gaussian/09-e.01/g09/l9999.exe)


 NATURE WILL TELL YOU A DIRECT LIE IF SHE CAN.

                                -- CHARLES DARWIN
 Error termination request processed by link 9999.
 Error termination via Lnk1e in /soft/gaussian/09-e.01/g09/l9999.exe at Thu Sep  5 23:05:50 2019.
 Job cpu time:       0 days  0 hours  6 minutes  9.0 seconds.
 File lengths (MBytes):  RWF=     77 Int=      0 D2E=      0 Chk=      2 Scr=      2
