 Entering Gaussian System, Link 0=g09
 Input=run.inp
 Output=run.out
 Initial command:
 /soft/gaussian/09-e.01/g09/l1.exe "/blues/gpfs/home/elliott/Packages/PACC/moldriver/rcdriver/rundir/RXN/CH3.H2/MDUSDFXREFXETQ/0_0/2_1/UHFFFAOYSA-N/CH4.H/HXBDELFRWIQQII/0_0/1_2/UHFFFAOYSA-N/2/ezvlpJU/SCANS/R6/04/RUN/OPTI/A00/Gau-42151.inp" -scrdir="/blues/gpfs/home/elliott/Packages/PACC/moldriver/rcdriver/rundir/RXN/CH3.H2/MDUSDFXREFXETQ/0_0/2_1/UHFFFAOYSA-N/CH4.H/HXBDELFRWIQQII/0_0/1_2/UHFFFAOYSA-N/2/ezvlpJU/SCANS/R6/04/RUN/OPTI/A00/"
 Entering Link 1 = /soft/gaussian/09-e.01/g09/l1.exe PID=     42152.
  
 Copyright (c) 1988,1990,1992,1993,1995,1998,2003,2009,2015,
            Gaussian, Inc.  All Rights Reserved.
  
 This is part of the Gaussian(R) 09 program.  It is based on
 the Gaussian(R) 03 system (copyright 2003, Gaussian, Inc.),
 the Gaussian(R) 98 system (copyright 1998, Gaussian, Inc.),
 the Gaussian(R) 94 system (copyright 1995, Gaussian, Inc.),
 the Gaussian 92(TM) system (copyright 1992, Gaussian, Inc.),
 the Gaussian 90(TM) system (copyright 1990, Gaussian, Inc.),
 the Gaussian 88(TM) system (copyright 1988, Gaussian, Inc.),
 the Gaussian 86(TM) system (copyright 1986, Carnegie Mellon
 University), and the Gaussian 82(TM) system (copyright 1983,
 Carnegie Mellon University). Gaussian is a federally registered
 trademark of Gaussian, Inc.
  
 This software contains proprietary and confidential information,
 including trade secrets, belonging to Gaussian, Inc.
  
 This software is provided under written license and may be
 used, copied, transmitted, or stored only in accord with that
 written license.
  
 The following legend is applicable only to US Government
 contracts under FAR:
  
                    RESTRICTED RIGHTS LEGEND
  
 Use, reproduction and disclosure by the US Government is
 subject to restrictions as set forth in subparagraphs (a)
 and (c) of the Commercial Computer Software - Restricted
 Rights clause in FAR 52.227-19.
  
 Gaussian, Inc.
 340 Quinnipiac St., Bldg. 40, Wallingford CT 06492
  
  
 ---------------------------------------------------------------
 Warning -- This program may not be used in any manner that
 competes with the business of Gaussian, Inc. or will provide
 assistance to any competitor of Gaussian, Inc.  The licensee
 of this program is prohibited from giving any competitor of
 Gaussian, Inc. access to this program.  By using this program,
 the user acknowledges that Gaussian, Inc. is engaged in the
 business of creating and licensing software in the field of
 computational chemistry and represents and warrants to the
 licensee that it is not a competitor of Gaussian, Inc. and that
 it will not use this program in any manner prohibited above.
 ---------------------------------------------------------------
  

 Cite this work as:
 Gaussian 09, Revision E.01,
 M. J. Frisch, G. W. Trucks, H. B. Schlegel, G. E. Scuseria, 
 M. A. Robb, J. R. Cheeseman, G. Scalmani, V. Barone, B. Mennucci, 
 G. A. Petersson, H. Nakatsuji, M. Caricato, X. Li, H. P. Hratchian, 
 A. F. Izmaylov, J. Bloino, G. Zheng, J. L. Sonnenberg, M. Hada, 
 M. Ehara, K. Toyota, R. Fukuda, J. Hasegawa, M. Ishida, T. Nakajima, 
 Y. Honda, O. Kitao, H. Nakai, T. Vreven, J. A. Montgomery, Jr., 
 J. E. Peralta, F. Ogliaro, M. Bearpark, J. J. Heyd, E. Brothers, 
 K. N. Kudin, V. N. Staroverov, T. Keith, R. Kobayashi, J. Normand, 
 K. Raghavachari, A. Rendell, J. C. Burant, S. S. Iyengar, J. Tomasi, 
 M. Cossi, N. Rega, J. M. Millam, M. Klene, J. E. Knox, J. B. Cross, 
 V. Bakken, C. Adamo, J. Jaramillo, R. Gomperts, R. E. Stratmann, 
 O. Yazyev, A. J. Austin, R. Cammi, C. Pomelli, J. W. Ochterski, 
 R. L. Martin, K. Morokuma, V. G. Zakrzewski, G. A. Voth, 
 P. Salvador, J. J. Dannenberg, S. Dapprich, A. D. Daniels, 
 O. Farkas, J. B. Foresman, J. V. Ortiz, J. Cioslowski, 
 and D. J. Fox, Gaussian, Inc., Wallingford CT, 2013.
 
 ******************************************
 Gaussian 09:  ES64L-G09RevE.01 30-Nov-2015
                23-Aug-2019 
 ******************************************
 %mem=20GB
 %NProcShared=10
 Will use up to   10 processors via shared memory.
 -----------------------------------------------------
 #P b3lyp/6-31g* # SCF=(xqc) # POpt=() # int=ultrafine
 -----------------------------------------------------
 1/10=7,14=-1,26=4,38=1/1,3;
 2/12=2,17=6,18=5,29=3,40=1/2;
 3/5=1,6=6,7=1,11=2,16=1,25=1,30=1,71=1,74=-5,75=-5/1,2,3;
 4//1;
 5/5=2,8=3,13=1,38=5/2,8;
 6/7=2,8=2,9=2,10=2,28=1/1;
 7/29=1/1,2,3,16;
 1/10=7,14=-1,26=4/3(2);
 2/29=3/2;
 99//99;
 2/29=3/2;
 3/5=1,6=6,7=1,11=2,16=1,25=1,30=1,71=1,74=-5,75=-5/1,2,3;
 4/5=5,16=3,69=1/1;
 5/5=2,8=3,13=1,38=5/2,8;
 7//1,2,3,16;
 1/14=-1,26=4/3(-5);
 2/29=3/2;
 6/7=2,8=2,9=2,10=2,19=2,28=1/1;
 99/9=1/99;
 Leave Link    1 at Fri Aug 23 16:08:32 2019, MaxMem=  2684354560 cpu:         0.8
 (Enter /soft/gaussian/09-e.01/g09/l101.exe)
 --------
 comment:
 --------
 Symbolic Z-matrix:
 Charge =  0 Multiplicity = 2
 C
 H                    1    R1
 H                    1    R2       2    A2
 H                    1    R3       2    A3       3    D3       0
 H                    1    R4       2    A4       3    D4       0
 X                    5    R5       1    A5       2    D5       0
 H                    5    R6       6    A6       1    D6       0
       Variables:
  R1                    1.0922                   
  R2                    1.0922                   
  A2                  109.471                    
  R3                    1.0922                   
  A3                  109.471                    
  D3                  120.                       
  R4                    1.0922                   
  A4                  109.471                    
  D4                  240.                       
  D6                  180.                       
  A6                   85.                       
       Constants:
  R5                    1.                       
  A5                   90.                       
  D5                  180.                       
  R6                    1.31143                  
 
     3 tetrahedral angles replaced.
 NAtoms=      6 NQM=        6 NQMF=       0 NMMI=      0 NMMIF=      0
                NMic=       0 NMicF=      0.
    3 tetrahedral angles replaced.
                    Isotopes and Nuclear Properties:
 (Nuclear quadrupole moments (NQMom) in fm**2, nuclear magnetic moments (NMagM)
  in nuclear magnetons)

  Atom         1           2           3           4           5           6
 IAtWgt=          12           1           1           1           1           1
 AtmWgt=  12.0000000   1.0078250   1.0078250   1.0078250   1.0078250   1.0078250
 NucSpn=           0           1           1           1           1           1
 AtZEff=   0.0000000   0.0000000   0.0000000   0.0000000   0.0000000   0.0000000
 NQMom=    0.0000000   0.0000000   0.0000000   0.0000000   0.0000000   0.0000000
 NMagM=    0.0000000   2.7928460   2.7928460   2.7928460   2.7928460   2.7928460
 AtZNuc=   6.0000000   1.0000000   1.0000000   1.0000000   1.0000000   1.0000000
 Leave Link  101 at Fri Aug 23 16:08:32 2019, MaxMem=  2684354560 cpu:         0.6
 (Enter /soft/gaussian/09-e.01/g09/l103.exe)

 GradGradGradGradGradGradGradGradGradGradGradGradGradGradGradGradGradGrad
 Berny optimization.
 Initialization pass.
                       ----------------------------
                       !    Initial Parameters    !
                       ! (Angstroms and Degrees)  !
 ----------------------                            ----------------------
 !      Name          Value   Derivative information (Atomic Units)     !
 ------------------------------------------------------------------------
 !       R1          1.0922   estimate D2E/DX2                          !
 !       R2          1.0922   estimate D2E/DX2                          !
 !       A2        109.4712   estimate D2E/DX2                          !
 !       R3          1.0922   estimate D2E/DX2                          !
 !       A3        109.4712   estimate D2E/DX2                          !
 !       D3        120.0      estimate D2E/DX2                          !
 !       R4          1.0922   estimate D2E/DX2                          !
 !       A4        109.4712   estimate D2E/DX2                          !
 !       D4        240.0      estimate D2E/DX2                          !
 !       D6        180.0      estimate D2E/DX2                          !
 !       A6         85.0      estimate D2E/DX2                          !
 !       R5          1.0      Frozen                                    !
 !       A5         90.0      Frozen                                    !
 !       D5        180.0      Frozen                                    !
 !       R6          1.3114   Frozen                                    !
 ------------------------------------------------------------------------
 Trust Radius=3.00D-01 FncErr=1.00D-07 GrdErr=1.00D-06
 Number of steps in this run=     25 maximum allowed number of steps=    100.
 GradGradGradGradGradGradGradGradGradGradGradGradGradGradGradGradGradGrad

 Leave Link  103 at Fri Aug 23 16:08:32 2019, MaxMem=  2684354560 cpu:         0.1
 (Enter /soft/gaussian/09-e.01/g09/l202.exe)
 ---------------------------------------------------------------------------------------------------
                            Z-MATRIX (ANGSTROMS AND DEGREES)
   CD    Cent   Atom    N1       Length/X        N2       Alpha/Y        N3        Beta/Z          J
 ---------------------------------------------------------------------------------------------------
      1      1  C 
      2      2  H        1   1.092201(     1)
      3      3  H        1   1.092201(     2)      2  109.471(     7)
      4      4  H        1   1.092201(     3)      2  109.471(     8)      3  120.000(    12)      0
      5      5  H        1   1.092201(     4)      2  109.471(     9)      3  240.000(    13)      0
      6         X        5   1.000000(     5)      1   90.000(    10)      2  180.000(    14)      0
      7      6  H        5   1.311429(     6)      6   85.000(    11)      1  180.000(    15)      0
 ---------------------------------------------------------------------------------------------------
                         Z-Matrix orientation:                         
 ---------------------------------------------------------------------
 Center     Atomic      Atomic             Coordinates (Angstroms)
 Number     Number       Type             X           Y           Z
 ---------------------------------------------------------------------
      1          6           0        0.000000    0.000000    0.000000
      2          1           0        0.000000    0.000000    1.092201
      3          1           0        1.029737    0.000000   -0.364067
      4          1           0       -0.514868   -0.891778   -0.364067
      5          1           0       -0.514868    0.891778   -0.364067
      6         -1           0       -0.348202    0.603103   -1.306876
      7          1           0       -1.111680    1.925486   -0.907308
 ---------------------------------------------------------------------
                    Distance matrix (angstroms):
                    1          2          3          4          5
     1  C    0.000000
     2  H    1.092201   0.000000
     3  H    1.092201   1.783557   0.000000
     4  H    1.092201   1.783557   1.783557   0.000000
     5  H    1.092201   1.783557   1.783557   1.783557   0.000000
     6  X    1.480845   2.498109   1.775201   1.775201   1.000000
     7  H    2.401361   2.990212   2.930576   2.930576   1.311429
                    6          7
     6  X    0.000000
     7  H    1.578369   0.000000
 This structure is nearly, but not quite of a higher symmetry.
 Consider Symm=Loose if the higher symmetry is desired.
 Stoichiometry    CH5(2)
 Framework group  C1[X(CH5)]
 Deg. of freedom    12
 Full point group                 C1      NOp   1
 Largest Abelian subgroup         C1      NOp   1
 Largest concise Abelian subgroup C1      NOp   1
                         Standard orientation:                         
 ---------------------------------------------------------------------
 Center     Atomic      Atomic             Coordinates (Angstroms)
 Number     Number       Type             X           Y           Z
 ---------------------------------------------------------------------
      1          6           0       -0.050097   -0.093403   -0.190849
      2          1           0       -0.442207    0.626697   -0.912381
      3          1           0       -0.798979   -0.866171   -0.004012
      4          1           0        0.855832   -0.553607   -0.591361
      5          1           0        0.184968    0.419468    0.744357
      6          1           0        0.500966    0.934034    1.908493
 ---------------------------------------------------------------------
 Rotational constants (GHZ):    157.6370072     58.2644681     58.2644681
 Leave Link  202 at Fri Aug 23 16:08:32 2019, MaxMem=  2684354560 cpu:         0.3
 (Enter /soft/gaussian/09-e.01/g09/l301.exe)
 Standard basis: 6-31G(d) (6D, 7F)
 Ernie: Thresh=  0.10000D-02 Tol=  0.10000D-05 Strict=F.
 There are    25 symmetry adapted cartesian basis functions of A   symmetry.
 There are    25 symmetry adapted basis functions of A   symmetry.
    25 basis functions,    48 primitive gaussians,    25 cartesian basis functions
     6 alpha electrons        5 beta electrons
       nuclear repulsion energy        15.6721311948 Hartrees.
 IExCor=  402 DFT=T Ex+Corr=B3LYP ExCW=0 ScaHFX=  0.200000
 ScaDFX=  0.800000  0.720000  1.000000  0.810000 ScalE2=  1.000000  1.000000
 IRadAn=      5 IRanWt=     -1 IRanGd=            0 ICorTp=0 IEmpDi=  4
 NAtoms=    6 NActive=    6 NUniq=    6 SFac= 1.00D+00 NAtFMM=   60 NAOKFM=F Big=F
 Integral buffers will be    131072 words long.
 Raffenetti 2 integral format.
 Two-electron integral symmetry is turned on.
 Leave Link  301 at Fri Aug 23 16:08:32 2019, MaxMem=  2684354560 cpu:         0.7
 (Enter /soft/gaussian/09-e.01/g09/l302.exe)
 NPDir=0 NMtPBC=     1 NCelOv=     1 NCel=       1 NClECP=     1 NCelD=      1
         NCelK=      1 NCelE2=     1 NClLst=     1 CellRange=     0.0.
 One-electron integrals computed using PRISM.
 NBasis=    25 RedAO= T EigKep=  1.28D-02  NBF=    25
 NBsUse=    25 1.00D-06 EigRej= -1.00D+00 NBFU=    25
 Precomputing XC quadrature grid using
 IXCGrd= 4 IRadAn=           5 IRanWt=          -1 IRanGd=           0 AccXCQ= 0.00D+00.
 Generated NRdTot=       0 NPtTot=           0 NUsed=           0 NTot=          32
 NSgBfM=    25    25    25    25    25 MxSgAt=     6 MxSgA2=     6.
 Leave Link  302 at Fri Aug 23 16:08:33 2019, MaxMem=  2684354560 cpu:         1.7
 (Enter /soft/gaussian/09-e.01/g09/l303.exe)
 DipDrv:  MaxL=1.
 Leave Link  303 at Fri Aug 23 16:08:33 2019, MaxMem=  2684354560 cpu:         0.2
 (Enter /soft/gaussian/09-e.01/g09/l401.exe)
 ExpMin= 1.61D-01 ExpMax= 3.05D+03 ExpMxC= 4.57D+02 IAcc=3 IRadAn=         5 AccDes= 0.00D+00
 Harris functional with IExCor=  402 and IRadAn=       5 diagonalized for initial guess.
 HarFok:  IExCor=  402 AccDes= 0.00D+00 IRadAn=         5 IDoV= 1 UseB2=F ITyADJ=14
 ICtDFT=  3500011 ScaDFX=  1.000000  1.000000  1.000000  1.000000
 FoFCou: FMM=F IPFlag=           0 FMFlag=      100000 FMFlg1=           0
         NFxFlg=           0 DoJE=T BraDBF=F KetDBF=T FulRan=T
         wScrn=  0.000000 ICntrl=     500 IOpCl=  0 I1Cent=   200000004 NGrid=           0
         NMat0=    1 NMatS0=      1 NMatT0=    0 NMatD0=    1 NMtDS0=    0 NMtDT0=    0
 Petite list used in FoFCou.
 Harris En= -41.0180885485780    
 JPrj=0 DoOrth=F DoCkMO=F.
 Initial guess <Sx>= 0.0000 <Sy>= 0.0000 <Sz>= 0.5000 <S**2>= 0.7500 S= 0.5000
 Leave Link  401 at Fri Aug 23 16:08:33 2019, MaxMem=  2684354560 cpu:         2.0
 (Enter /soft/gaussian/09-e.01/g09/l502.exe)
 UHF open shell SCF:
 Using DIIS extrapolation, IDIIS=  1040.
 Integral symmetry usage will be decided dynamically.
 Keep R1 and R2 ints in memory in canonical form, NReq=976418.
 IVT=        8268 IEndB=        8268 NGot=  2684354560 MDV=  2684240343
 LenX=  2684240343 LenY=  2684239277
 Requested convergence on RMS density matrix=1.00D-08 within  64 cycles.
 Requested convergence on MAX density matrix=1.00D-06.
 Requested convergence on             energy=1.00D-06.
 No special actions if energy rises.
 FoFCou: FMM=F IPFlag=           0 FMFlag=           0 FMFlg1=           0
         NFxFlg=           0 DoJE=F BraDBF=F KetDBF=F FulRan=T
         wScrn=  0.000000 ICntrl=     600 IOpCl=  0 I1Cent=           0 NGrid=           0
         NMat0=    1 NMatS0=    325 NMatT0=    0 NMatD0=    1 NMtDS0=    0 NMtDT0=    0
 Symmetry not used in FoFCou.
 Integral accuracy reduced to 1.0D-05 until final iterations.

 Cycle   1  Pass 0  IDiag  1:
 E= -40.9152506862105    
 DIIS: error= 6.92D-02 at cycle   1 NSaved=   1.
 NSaved= 1 IEnMin= 1 EnMin= -40.9152506862105     IErMin= 1 ErrMin= 6.92D-02
 ErrMax= 6.92D-02  0.00D+00 EMaxC= 1.00D-01 BMatC= 3.48D-01 BMatP= 3.48D-01
 IDIUse=3 WtCom= 3.08D-01 WtEn= 6.92D-01
 Coeff-Com:  0.100D+01
 Coeff-En:   0.100D+01
 Coeff:      0.100D+01
 Gap=     0.453 Goal=   None    Shift=    0.000
 Gap=     0.186 Goal=   None    Shift=    0.000
 GapD=    0.186 DampG=1.000 DampE=0.500 DampFc=0.5000 IDamp=-1.
 Damping current iteration by 5.00D-01
 RMSDP=2.54D-02 MaxDP=2.17D-01              OVMax= 2.70D-01

 Cycle   2  Pass 0  IDiag  1:
 E= -40.9569368078481     Delta-E=       -0.041686121638 Rises=F Damp=T
 DIIS: error= 1.23D-02 at cycle   2 NSaved=   2.
 NSaved= 2 IEnMin= 2 EnMin= -40.9569368078481     IErMin= 2 ErrMin= 1.23D-02
 ErrMax= 1.23D-02  0.00D+00 EMaxC= 1.00D-01 BMatC= 1.04D-02 BMatP= 3.48D-01
 IDIUse=3 WtCom= 8.77D-01 WtEn= 1.23D-01
 Coeff-Com:  0.937D-01 0.906D+00
 Coeff-En:   0.161D+00 0.839D+00
 Coeff:      0.102D+00 0.898D+00
 Gap=     0.409 Goal=   None    Shift=    0.000
 Gap=     0.295 Goal=   None    Shift=    0.000
 RMSDP=3.21D-03 MaxDP=5.26D-02 DE=-4.17D-02 OVMax= 1.72D-01

 Cycle   3  Pass 0  IDiag  1:
 E= -41.0109820022827     Delta-E=       -0.054045194435 Rises=F Damp=F
 DIIS: error= 1.53D-03 at cycle   3 NSaved=   3.
 NSaved= 3 IEnMin= 3 EnMin= -41.0109820022827     IErMin= 3 ErrMin= 1.53D-03
 ErrMax= 1.53D-03  0.00D+00 EMaxC= 1.00D-01 BMatC= 1.35D-04 BMatP= 1.04D-02
 IDIUse=3 WtCom= 9.85D-01 WtEn= 1.53D-02
 Coeff-Com: -0.209D-02-0.593D-01 0.106D+01
 Coeff-En:   0.000D+00 0.000D+00 0.100D+01
 Coeff:     -0.206D-02-0.584D-01 0.106D+01
 Gap=     0.392 Goal=   None    Shift=    0.000
 Gap=     0.310 Goal=   None    Shift=    0.000
 RMSDP=7.98D-04 MaxDP=9.73D-03 DE=-5.40D-02 OVMax= 8.82D-03

 Cycle   4  Pass 0  IDiag  1:
 E= -41.0110784964501     Delta-E=       -0.000096494167 Rises=F Damp=F
 DIIS: error= 3.68D-04 at cycle   4 NSaved=   4.
 NSaved= 4 IEnMin= 4 EnMin= -41.0110784964501     IErMin= 4 ErrMin= 3.68D-04
 ErrMax= 3.68D-04  0.00D+00 EMaxC= 1.00D-01 BMatC= 6.85D-06 BMatP= 1.35D-04
 IDIUse=3 WtCom= 9.96D-01 WtEn= 3.68D-03
 Coeff-Com: -0.224D-02 0.235D-02-0.137D+00 0.114D+01
 Coeff-En:   0.000D+00 0.000D+00 0.000D+00 0.100D+01
 Coeff:     -0.223D-02 0.234D-02-0.136D+00 0.114D+01
 Gap=     0.392 Goal=   None    Shift=    0.000
 Gap=     0.312 Goal=   None    Shift=    0.000
 RMSDP=1.35D-04 MaxDP=1.32D-03 DE=-9.65D-05 OVMax= 2.72D-03

 Cycle   5  Pass 0  IDiag  1:
 E= -41.0110833028127     Delta-E=       -0.000004806363 Rises=F Damp=F
 DIIS: error= 8.50D-05 at cycle   5 NSaved=   5.
 NSaved= 5 IEnMin= 5 EnMin= -41.0110833028127     IErMin= 5 ErrMin= 8.50D-05
 ErrMax= 8.50D-05  0.00D+00 EMaxC= 1.00D-01 BMatC= 5.82D-07 BMatP= 6.85D-06
 IDIUse=1 WtCom= 1.00D+00 WtEn= 0.00D+00
 Coeff-Com: -0.791D-03 0.309D-02-0.670D-01 0.171D+00 0.894D+00
 Coeff:     -0.791D-03 0.309D-02-0.670D-01 0.171D+00 0.894D+00
 Gap=     0.392 Goal=   None    Shift=    0.000
 Gap=     0.312 Goal=   None    Shift=    0.000
 RMSDP=2.87D-05 MaxDP=3.21D-04 DE=-4.81D-06 OVMax= 2.35D-04

 Cycle   6  Pass 0  IDiag  1:
 E= -41.0110835225900     Delta-E=       -0.000000219777 Rises=F Damp=F
 DIIS: error= 1.16D-05 at cycle   6 NSaved=   6.
 NSaved= 6 IEnMin= 6 EnMin= -41.0110835225900     IErMin= 6 ErrMin= 1.16D-05
 ErrMax= 1.16D-05  0.00D+00 EMaxC= 1.00D-01 BMatC= 1.51D-08 BMatP= 5.82D-07
 IDIUse=1 WtCom= 1.00D+00 WtEn= 0.00D+00
 Coeff-Com: -0.161D-04 0.440D-04 0.149D-02-0.318D-01 0.263D-01 0.100D+01
 Coeff:     -0.161D-04 0.440D-04 0.149D-02-0.318D-01 0.263D-01 0.100D+01
 Gap=     0.392 Goal=   None    Shift=    0.000
 Gap=     0.312 Goal=   None    Shift=    0.000
 RMSDP=5.13D-06 MaxDP=4.00D-05 DE=-2.20D-07 OVMax= 5.08D-05

 Initial convergence to 1.0D-05 achieved.  Increase integral accuracy.
 Cycle   7  Pass 1  IDiag  1:
 E= -41.0110837028620     Delta-E=       -0.000000180272 Rises=F Damp=F
 DIIS: error= 3.91D-06 at cycle   1 NSaved=   1.
 NSaved= 1 IEnMin= 1 EnMin= -41.0110837028620     IErMin= 1 ErrMin= 3.91D-06
 ErrMax= 3.91D-06  0.00D+00 EMaxC= 1.00D-01 BMatC= 1.26D-09 BMatP= 1.26D-09
 IDIUse=1 WtCom= 1.00D+00 WtEn= 0.00D+00
 Coeff-Com:  0.100D+01
 Coeff:      0.100D+01
 Gap=     0.392 Goal=   None    Shift=    0.000
 Gap=     0.312 Goal=   None    Shift=    0.000
 RMSDP=5.13D-06 MaxDP=4.00D-05 DE=-1.80D-07 OVMax= 1.54D-05

 Cycle   8  Pass 1  IDiag  1:
 E= -41.0110837035542     Delta-E=       -0.000000000692 Rises=F Damp=F
 DIIS: error= 2.91D-06 at cycle   2 NSaved=   2.
 NSaved= 2 IEnMin= 2 EnMin= -41.0110837035542     IErMin= 2 ErrMin= 2.91D-06
 ErrMax= 2.91D-06  0.00D+00 EMaxC= 1.00D-01 BMatC= 4.35D-10 BMatP= 1.26D-09
 IDIUse=1 WtCom= 1.00D+00 WtEn= 0.00D+00
 Coeff-Com:  0.260D+00 0.740D+00
 Coeff:      0.260D+00 0.740D+00
 Gap=     0.392 Goal=   None    Shift=    0.000
 Gap=     0.312 Goal=   None    Shift=    0.000
 RMSDP=5.63D-07 MaxDP=5.13D-06 DE=-6.92D-10 OVMax= 9.60D-06

 Cycle   9  Pass 1  IDiag  1:
 E= -41.0110837036966     Delta-E=       -0.000000000142 Rises=F Damp=F
 DIIS: error= 1.84D-06 at cycle   3 NSaved=   3.
 NSaved= 3 IEnMin= 3 EnMin= -41.0110837036966     IErMin= 3 ErrMin= 1.84D-06
 ErrMax= 1.84D-06  0.00D+00 EMaxC= 1.00D-01 BMatC= 1.56D-10 BMatP= 4.35D-10
 IDIUse=1 WtCom= 1.00D+00 WtEn= 0.00D+00
 Coeff-Com: -0.174D+00 0.309D+00 0.865D+00
 Coeff:     -0.174D+00 0.309D+00 0.865D+00
 Gap=     0.392 Goal=   None    Shift=    0.000
 Gap=     0.312 Goal=   None    Shift=    0.000
 RMSDP=4.10D-07 MaxDP=3.63D-06 DE=-1.42D-10 OVMax= 4.81D-06

 Cycle  10  Pass 1  IDiag  1:
 E= -41.0110837037597     Delta-E=       -0.000000000063 Rises=F Damp=F
 DIIS: error= 4.20D-07 at cycle   4 NSaved=   4.
 NSaved= 4 IEnMin= 4 EnMin= -41.0110837037597     IErMin= 4 ErrMin= 4.20D-07
 ErrMax= 4.20D-07  0.00D+00 EMaxC= 1.00D-01 BMatC= 1.22D-11 BMatP= 1.56D-10
 IDIUse=1 WtCom= 1.00D+00 WtEn= 0.00D+00
 Coeff-Com: -0.103D+00-0.176D-01 0.253D+00 0.868D+00
 Coeff:     -0.103D+00-0.176D-01 0.253D+00 0.868D+00
 Gap=     0.392 Goal=   None    Shift=    0.000
 Gap=     0.312 Goal=   None    Shift=    0.000
 RMSDP=1.36D-07 MaxDP=1.08D-06 DE=-6.32D-11 OVMax= 1.65D-06

 Cycle  11  Pass 1  IDiag  1:
 E= -41.0110837037656     Delta-E=       -0.000000000006 Rises=F Damp=F
 DIIS: error= 4.71D-08 at cycle   5 NSaved=   5.
 NSaved= 5 IEnMin= 5 EnMin= -41.0110837037656     IErMin= 5 ErrMin= 4.71D-08
 ErrMax= 4.71D-08  0.00D+00 EMaxC= 1.00D-01 BMatC= 1.49D-13 BMatP= 1.22D-11
 IDIUse=1 WtCom= 1.00D+00 WtEn= 0.00D+00
 Coeff-Com:  0.437D-04-0.753D-02-0.216D-01 0.473D-01 0.982D+00
 Coeff:      0.437D-04-0.753D-02-0.216D-01 0.473D-01 0.982D+00
 Gap=     0.392 Goal=   None    Shift=    0.000
 Gap=     0.312 Goal=   None    Shift=    0.000
 RMSDP=1.38D-08 MaxDP=1.19D-07 DE=-5.83D-12 OVMax= 1.75D-07

 Cycle  12  Pass 1  IDiag  1:
 E= -41.0110837037656     Delta-E=       -0.000000000000 Rises=F Damp=F
 DIIS: error= 1.23D-08 at cycle   6 NSaved=   6.
 NSaved= 6 IEnMin= 6 EnMin= -41.0110837037656     IErMin= 6 ErrMin= 1.23D-08
 ErrMax= 1.23D-08  0.00D+00 EMaxC= 1.00D-01 BMatC= 4.82D-15 BMatP= 1.49D-13
 IDIUse=1 WtCom= 1.00D+00 WtEn= 0.00D+00
 Coeff-Com:  0.479D-02-0.532D-04-0.922D-02-0.383D-01-0.117D-01 0.105D+01
 Coeff:      0.479D-02-0.532D-04-0.922D-02-0.383D-01-0.117D-01 0.105D+01
 Gap=     0.392 Goal=   None    Shift=    0.000
 Gap=     0.312 Goal=   None    Shift=    0.000
 RMSDP=3.97D-09 MaxDP=4.41D-08 DE=-4.26D-14 OVMax= 3.44D-08

 SCF Done:  E(UB3LYP) =  -41.0110837038     A.U. after   12 cycles
            NFock= 12  Conv=0.40D-08     -V/T= 2.0089
 <Sx>= 0.0000 <Sy>= 0.0000 <Sz>= 0.5000 <S**2>= 0.7521 S= 0.5011
 <L.S>= 0.000000000000E+00
 KE= 4.064870424965D+01 PE=-1.253566215715D+02 EE= 2.802470242328D+01
 Annihilation of the first spin contaminant:
 S**2 before annihilation     0.7521,   after     0.7500
 Leave Link  502 at Fri Aug 23 16:08:34 2019, MaxMem=  2684354560 cpu:         6.5
 (Enter /soft/gaussian/09-e.01/g09/l508.exe)
 QCSCF skips out because SCF is already converged.
 Leave Link  508 at Fri Aug 23 16:08:34 2019, MaxMem=  2684354560 cpu:         0.0
 (Enter /soft/gaussian/09-e.01/g09/l601.exe)
 Copying SCF densities to generalized density rwf, IOpCl= 1 IROHF=0.

 **********************************************************************

            Population analysis using the SCF density.

 **********************************************************************

 Orbital symmetries:
 Alpha Orbitals:
       Occupied  (A) (A) (A) (A) (A) (A)
       Virtual   (A) (A) (A) (A) (A) (A) (A) (A) (A) (A) (A) (A)
                 (A) (A) (A) (A) (A) (A) (A)
 Beta  Orbitals:
       Occupied  (A) (A) (A) (A) (A)
       Virtual   (A) (A) (A) (A) (A) (A) (A) (A) (A) (A) (A) (A)
                 (A) (A) (A) (A) (A) (A) (A) (A)
 The electronic state is 2-A.
 Alpha  occ. eigenvalues --  -10.17368  -0.70486  -0.44065  -0.39680  -0.39676
 Alpha  occ. eigenvalues --   -0.26663
 Alpha virt. eigenvalues --    0.12537   0.17049   0.17060   0.24986   0.52639
 Alpha virt. eigenvalues --    0.52655   0.53679   0.73241   0.89106   0.89117
 Alpha virt. eigenvalues --    0.93930   0.97293   1.20911   1.64341   1.64370
 Alpha virt. eigenvalues --    2.23073   2.23490   2.23493   4.20559
  Beta  occ. eigenvalues --  -10.17013  -0.69587  -0.41005  -0.39453  -0.39450
  Beta virt. eigenvalues --   -0.08283   0.12836   0.17269   0.17276   0.27032
  Beta virt. eigenvalues --    0.52693   0.52697   0.55043   0.86449   0.89413
  Beta virt. eigenvalues --    0.89429   0.94715   0.97610   1.22429   1.65343
  Beta virt. eigenvalues --    1.65357   2.24081   2.24089   2.24237   4.21274
          Condensed to atoms (all electrons):
               1          2          3          4          5          6
     1  C    5.152330   0.379850   0.381682   0.381682   0.352107  -0.069498
     2  H    0.379850   0.533220  -0.025632  -0.025632  -0.026774   0.002054
     3  H    0.381682  -0.025632   0.533058  -0.025666  -0.028575   0.002087
     4  H    0.381682  -0.025632  -0.025666   0.533058  -0.028575   0.002087
     5  H    0.352107  -0.026774  -0.028575  -0.028575   0.595193   0.034007
     6  H   -0.069498   0.002054   0.002087   0.002087   0.034007   1.042735
          Atomic-Atomic Spin Densities.
               1          2          3          4          5          6
     1  C    0.265928  -0.010670  -0.009799  -0.009799   0.030792  -0.085647
     2  H   -0.010670   0.001003   0.001963   0.001963   0.001056   0.003228
     3  H   -0.009799   0.001963  -0.001197   0.001787   0.001298   0.003207
     4  H   -0.009799   0.001963   0.001787  -0.001197   0.001298   0.003207
     5  H    0.030792   0.001056   0.001298   0.001298  -0.072272  -0.029542
     6  H   -0.085647   0.003228   0.003207   0.003207  -0.029542   0.999051
 Mulliken charges and spin densities:
               1          2
     1  C   -0.578152   0.180806
     2  H    0.162913  -0.001457
     3  H    0.163046  -0.002741
     4  H    0.163046  -0.002741
     5  H    0.102617  -0.067371
     6  H   -0.013471   0.893504
 Sum of Mulliken charges =   0.00000   1.00000
 Mulliken charges and spin densities with hydrogens summed into heavy atoms:
               1          2
     1  C    0.000000   1.000000
 Electronic spatial extent (au):  <R**2>=             57.6676
 Charge=              0.0000 electrons
 Dipole moment (field-independent basis, Debye):
    X=             -0.0953    Y=             -0.1834    Z=             -0.3660  Tot=              0.4203
 Quadrupole moment (field-independent basis, Debye-Ang):
   XX=             -9.5131   YY=             -9.6621   ZZ=            -10.2908
   XY=             -0.1082   XZ=             -0.2179   YZ=             -0.4145
 Traceless Quadrupole moment (field-independent basis, Debye-Ang):
   XX=              0.3089   YY=              0.1599   ZZ=             -0.4688
   XY=             -0.1082   XZ=             -0.2179   YZ=             -0.4145
 Octapole moment (field-independent basis, Debye-Ang**2):
  XXX=             -0.5764  YYY=             -1.6373  ZZZ=             -4.3833  XYY=             -0.6396
  XXY=             -0.9864  XXZ=             -1.2564  XZZ=             -0.6437  YZZ=             -0.8755
  YYZ=             -1.4623  XYZ=              0.1707
 Hexadecapole moment (field-independent basis, Debye-Ang**3):
 XXXX=            -18.7301 YYYY=            -24.4601 ZZZZ=            -51.2014 XXXY=             -2.0252
 XXXZ=             -4.4766 YYYX=             -1.8665 YYYZ=             -8.1843 ZZZX=             -4.7566
 ZZZY=             -9.4643 XXYY=             -6.7637 XXZZ=            -11.2659 YYZZ=            -12.6117
 XXYZ=             -2.5599 YYXZ=             -1.5540 ZZXY=             -1.4105
 N-N= 1.567213119476D+01 E-N=-1.253566214761D+02  KE= 4.064870424965D+01
                          Isotropic Fermi Contact Couplings
        Atom                 a.u.       MegaHertz       Gauss      10(-4) cm-1
     1  C(13)              0.09283     104.36379      37.23959      34.81201
     2  H(1)              -0.00078      -3.47639      -1.24046      -1.15960
     3  H(1)              -0.00136      -6.09333      -2.17425      -2.03252
     4  H(1)              -0.00136      -6.09334      -2.17426      -2.03252
     5  H(1)              -0.00721     -32.24543     -11.50597     -10.75592
     6  H(1)               0.28477    1272.87932     454.19498     424.58684
 --------------------------------------------------------
       Center         ----  Spin Dipole Couplings  ----
                      3XX-RR        3YY-RR        3ZZ-RR
 --------------------------------------------------------
     1   Atom       -0.099244     -0.043499      0.142743
     2   Atom       -0.010920     -0.001007      0.011927
     3   Atom       -0.000974      0.003592     -0.002618
     4   Atom        0.003019     -0.006289      0.003270
     5   Atom       -0.062505     -0.033374      0.095879
     6   Atom        0.005593      0.003524     -0.009117
 --------------------------------------------------------
                        XY            XZ            YZ
 --------------------------------------------------------
     1   Atom        0.035094      0.065873      0.137454
     2   Atom       -0.005039      0.011033     -0.006331
     3   Atom        0.016869      0.001954      0.005211
     4   Atom       -0.008910     -0.007050      0.012928
     5   Atom        0.021782      0.044685      0.083123
     6   Atom       -0.001926     -0.004282     -0.007142
 --------------------------------------------------------


 ---------------------------------------------------------------------------------
              Anisotropic Spin Dipole Couplings in Principal Axis System
 ---------------------------------------------------------------------------------

       Atom             a.u.   MegaHertz   Gauss  10(-4) cm-1        Axes

              Baa    -0.1164   -15.626    -5.576    -5.212 -0.3016  0.8719 -0.3857
     1 C(13)  Bbb    -0.1160   -15.566    -5.554    -5.192  0.9278  0.1753 -0.3293
              Bcc     0.2324    31.192    11.130    10.404  0.2195  0.4572  0.8618
 
              Baa    -0.0158    -8.424    -3.006    -2.810  0.9278  0.1752 -0.3293
     2 H(1)   Bbb    -0.0036    -1.907    -0.681    -0.636 -0.0322  0.9171  0.3974
              Bcc     0.0194    10.331     3.686     3.446  0.3717 -0.3582  0.8565
 
              Baa    -0.0160    -8.546    -3.049    -2.851  0.7286 -0.6675  0.1533
     3 H(1)   Bbb    -0.0035    -1.891    -0.675    -0.631 -0.2670 -0.0706  0.9611
              Bcc     0.0196    10.437     3.724     3.481  0.6307  0.7412  0.2297
 
              Baa    -0.0160    -8.546    -3.049    -2.851  0.2150  0.8458 -0.4883
     4 H(1)   Bbb    -0.0035    -1.891    -0.675    -0.631  0.8030  0.1315  0.5813
              Bcc     0.0196    10.437     3.724     3.481 -0.5559  0.5171  0.6509
 
              Baa    -0.0743   -39.617   -14.136   -13.215  0.9278  0.1752 -0.3293
     5 H(1)   Bbb    -0.0740   -39.491   -14.092   -13.173 -0.2940  0.8868 -0.3565
              Bcc     0.1483    79.108    28.228    26.388  0.2296  0.4276  0.8743
 
              Baa    -0.0135    -7.197    -2.568    -2.401  0.2389  0.3987  0.8854
     6 H(1)   Bbb     0.0067     3.596     1.283     1.200 -0.2865  0.9002 -0.3281
              Bcc     0.0067     3.601     1.285     1.201  0.9278  0.1752 -0.3293
 

 ---------------------------------------------------------------------------------

 No NMR shielding tensors so no spin-rotation constants.
 Leave Link  601 at Fri Aug 23 16:08:34 2019, MaxMem=  2684354560 cpu:         3.1
 (Enter /soft/gaussian/09-e.01/g09/l701.exe)
 Compute integral first derivatives.
 ... and contract with generalized density number  0.
 Leave Link  701 at Fri Aug 23 16:08:34 2019, MaxMem=  2684354560 cpu:         1.6
 (Enter /soft/gaussian/09-e.01/g09/l702.exe)
 L702 exits ... SP integral derivatives will be done elsewhere.
 Leave Link  702 at Fri Aug 23 16:08:34 2019, MaxMem=  2684354560 cpu:         0.1
 (Enter /soft/gaussian/09-e.01/g09/l703.exe)
 Compute integral first derivatives, UseDBF=F ICtDFT=           0.
 Integral derivatives from FoFJK, PRISM(SPDF).
 Calling FoFJK, ICntrl=      2127 FMM=F ISym2X=0 I1Cent= 0 IOpClX= 1 NMat=1 NMatS=1 NMatT=0.
 FoFJK:  IHMeth= 1 ICntrl=    2127 DoSepK=F KAlg= 0 I1Cent=   0 FoldK=F
 IRaf=         0 NMat=   1 IRICut=       1 DoRegI=T DoRafI=F ISym2E= 0.
 FoFCou: FMM=F IPFlag=           0 FMFlag=      100000 FMFlg1=         800
         NFxFlg=           0 DoJE=F BraDBF=F KetDBF=F FulRan=T
         wScrn=  0.000000 ICntrl=    2127 IOpCl=  1 I1Cent=           0 NGrid=           0
         NMat0=    1 NMatS0=      1 NMatT0=    0 NMatD0=    1 NMtDS0=    0 NMtDT0=    0
 Symmetry not used in FoFCou.
 Leave Link  703 at Fri Aug 23 16:08:34 2019, MaxMem=  2684354560 cpu:         2.3
 (Enter /soft/gaussian/09-e.01/g09/l716.exe)
 Dipole        =-3.74795098D-02-7.21637147D-02-1.43998524D-01
 ***** Axes restored to original set *****
 -------------------------------------------------------------------
 Center     Atomic                   Forces (Hartrees/Bohr)
 Number     Number              X              Y              Z
 -------------------------------------------------------------------
      1        6           0.011328871   -0.019622721    0.008628325
      2        1          -0.000730430    0.001264995    0.000937333
      3        1           0.000505954    0.001330457   -0.001025343
      4        1          -0.001405265    0.000227102   -0.001025470
      5        1          -0.004113341    0.007125284   -0.002900256
      6        1          -0.005585789    0.009674883   -0.004614589
 -------------------------------------------------------------------
 Cartesian Forces:  Max     0.019622721 RMS     0.006746233
 -----------------------------------------------------------------------------------------------
                       Internal Coordinate Forces (Hartree/Bohr or radian)
  Cent   Atom   N1       Length/X         N2         Alpha/Y        N3         Beta/Z          J
 -----------------------------------------------------------------------------------------------
      1  C 
      2  H        1   0.000937(     1)
      3  H        1   0.000819(     2)      2   0.001647(     7)
      4  H        1   0.000819(     3)      2   0.001647(     8)      3   0.002589(    12)     0
      5  H        1   0.020794(     4)      2   0.000217(     9)      3   0.000001(    13)     0
         X        5  -0.000000(     5)      1   0.001060(    10)      2  -0.000000(    14)     0
      6  H        5   0.012080(     6)      6   0.001060(    11)      1  -0.000000(    15)     0
 -----------------------------------------------------------------------------------------------
 Internal  Forces:  Max     0.020794441 RMS     0.006297980
 Force constants in Cartesian coordinates: 
                1             2             3             4             5 
      1  0.825227D+00
      2  0.904475D-01  0.720787D+00
      3 -0.615639D-02  0.106632D-01  0.699040D+00
      4 -0.719808D-01  0.248364D-02  0.000000D+00  0.572310D-01
      5  0.248364D-02 -0.748487D-01  0.000000D+00  0.263014D-03  0.569273D-01
      6  0.000000D+00  0.000000D+00 -0.345595D+00  0.000000D+00  0.000000D+00
      7 -0.317375D+00 -0.106167D-02  0.844459D-01  0.125683D-01  0.000000D+00
      8 -0.295122D-02 -0.781215D-01 -0.330629D-03  0.000000D+00  0.436532D-03
      9  0.798174D-01 -0.300286D-02 -0.106746D+00  0.355484D-01  0.000000D+00
     10 -0.139673D+00 -0.105548D+00 -0.419366D-01  0.346946D-02  0.525319D-02
     11 -0.103658D+00 -0.255824D+00 -0.732976D-01  0.525319D-02  0.953533D-02
     12 -0.373082D-01 -0.706254D-01 -0.106746D+00 -0.177742D-01 -0.307858D-01
     13 -0.429961D+00 -0.610562D-01 -0.302446D-01 -0.539204D-02 -0.103694D-01
     14 -0.610562D-01 -0.359460D+00  0.523853D-01 -0.103694D-01  0.658149D-02
     15 -0.316078D-01  0.547463D-01 -0.166795D+00 -0.177742D-01  0.307858D-01
     16  0.133763D+00  0.747347D-01 -0.610825D-02  0.410416D-02  0.236954D-02
     17  0.747347D-01  0.474673D-01  0.105798D-01  0.236954D-02  0.136805D-02
     18 -0.474511D-02  0.821876D-02  0.268424D-01  0.000000D+00  0.000000D+00
                6             7             8             9            10 
      6  0.345595D+00
      7  0.000000D+00  0.313555D+00
      8  0.000000D+00  0.876712D-04  0.569273D-01
      9  0.000000D+00 -0.906241D-01  0.247972D-03  0.892715D-01
     10  0.000000D+00 -0.520040D-02 -0.272741D-01 -0.147089D-01  0.121160D+00
     11  0.000000D+00  0.175106D-02  0.953533D-02  0.495276D-02  0.111167D+00
     12  0.000000D+00  0.306526D-02  0.152147D-01  0.866986D-02  0.450973D-01
     13  0.000000D+00 -0.217907D-02  0.325072D-01 -0.616334D-02  0.229796D-01
     14  0.000000D+00  0.127817D-04  0.125904D-01  0.361520D-04  0.179818D-01
     15  0.000000D+00  0.311298D-02 -0.151320D-01  0.880484D-02  0.115482D-01
     16  0.000000D+00 -0.136805D-02 -0.236954D-02 -0.386944D-02 -0.273611D-02
     17  0.000000D+00 -0.789846D-03 -0.136805D-02 -0.223402D-02 -0.157969D-02
     18  0.000000D+00  0.000000D+00  0.000000D+00  0.000000D+00  0.000000D+00
               11            12            13            14            15 
     11  0.249322D+00
     12  0.786068D-01  0.892715D-01
     13 -0.145126D-01  0.305036D-02  0.678161D+00
     14 -0.125683D-01  0.535569D-02  0.159440D+00  0.494055D+00
     15 -0.102619D-01  0.880484D-02  0.399050D-01 -0.691175D-01  0.212358D+00
     16  0.000000D+00  0.386944D-02 -0.263608D+00 -0.106009D+00 -0.518424D-02
     17  0.000000D+00  0.223402D-02 -0.106009D+00 -0.141199D+00  0.897936D-02
     18  0.000000D+00  0.000000D+00 -0.654738D-02  0.113404D-01 -0.631727D-01
               16            17            18 
     16  0.129844D+00
     17  0.312743D-01  0.937319D-01
     18  0.112925D-01 -0.195592D-01  0.363304D-01
 Force constants in internal coordinates: 
                1             2             3             4             5 
      1  0.345595D+00
      2  0.000000D+00  0.345595D+00
      3  0.000000D+00  0.000000D+00  0.345595D+00
      4  0.000000D+00  0.000000D+00  0.000000D+00  0.345595D+00
      5  0.000000D+00  0.000000D+00  0.000000D+00  0.000000D+00  0.000000D+00
      6  0.000000D+00  0.000000D+00  0.000000D+00  0.000000D+00  0.000000D+00
      7  0.000000D+00  0.000000D+00  0.000000D+00  0.000000D+00  0.000000D+00
      8  0.000000D+00  0.000000D+00  0.000000D+00  0.000000D+00  0.000000D+00
      9  0.000000D+00  0.000000D+00  0.000000D+00  0.000000D+00  0.000000D+00
     10  0.000000D+00  0.000000D+00  0.000000D+00  0.000000D+00  0.000000D+00
     11  0.000000D+00  0.000000D+00  0.000000D+00  0.000000D+00  0.000000D+00
     12  0.000000D+00  0.000000D+00  0.000000D+00  0.000000D+00  0.000000D+00
     13  0.000000D+00  0.000000D+00  0.000000D+00  0.000000D+00  0.000000D+00
     14  0.000000D+00  0.000000D+00  0.000000D+00  0.000000D+00  0.000000D+00
     15  0.000000D+00  0.000000D+00  0.000000D+00  0.000000D+00  0.000000D+00
                6             7             8             9            10 
      6  0.859546D-01
      7  0.000000D+00  0.243800D+00
      8  0.000000D+00  0.415497D-01  0.243800D+00
      9  0.000000D+00  0.421965D-01  0.421965D-01  0.242291D+00
     10  0.000000D+00  0.000000D+00  0.000000D+00  0.000000D+00  0.160000D+00
     11  0.000000D+00  0.000000D+00  0.000000D+00  0.000000D+00  0.160000D+00
     12  0.000000D+00 -0.648136D-01 -0.105634D-02  0.644615D-01  0.000000D+00
     13  0.000000D+00  0.637573D-01 -0.637573D-01  0.000000D+00  0.000000D+00
     14  0.000000D+00 -0.211268D-02  0.211268D-02  0.000000D+00  0.000000D+00
     15  0.000000D+00 -0.241481D-01  0.241481D-01  0.000000D+00  0.000000D+00
               11            12            13            14            15 
     11  0.160000D+00
     12  0.000000D+00  0.215561D+00
     13  0.000000D+00 -0.108068D+00  0.216136D+00
     14  0.000000D+00 -0.115000D-02  0.230000D-02  0.690000D-02
     15  0.000000D+00 -0.131446D-01  0.262891D-01  0.788674D-01  0.901458D+00
 Leave Link  716 at Fri Aug 23 16:08:34 2019, MaxMem=  2684354560 cpu:         0.2
 (Enter /soft/gaussian/09-e.01/g09/l103.exe)

 GradGradGradGradGradGradGradGradGradGradGradGradGradGradGradGradGradGrad
 Berny optimization.
 Search for a local minimum.
 Step number   1 out of a maximum of   25
 All quantities printed in internal units (Hartrees-Bohrs-Radians)
 Second derivative matrix not updated -- first step.
 The second derivative matrix:
                          R1        R2        A2        R3        A3
           R1           0.34560
           R2           0.00000   0.34560
           A2          -0.00000   0.00000   0.24380
           R3          -0.00000  -0.00000   0.00000   0.34560
           A3          -0.00000   0.00000   0.04155  -0.00000   0.24380
           D3           0.00000  -0.00000  -0.06481  -0.00000  -0.00106
           R4          -0.00000  -0.00000   0.00000   0.00000  -0.00000
           A4           0.00000   0.00000   0.04220   0.00000   0.04220
           D4           0.00000   0.00000   0.06376  -0.00000  -0.06376
           D6          -0.00000  -0.00000  -0.02415   0.00000   0.02415
           A6           0.00000   0.00000   0.00000   0.00000  -0.00000
           R5           0.00000  -0.00000  -0.00000   0.00000  -0.00000
           A5           0.00000   0.00000   0.00000   0.00000  -0.00000
           D5          -0.00000  -0.00000  -0.00211   0.00000   0.00211
           R6          -0.00000  -0.00000   0.00000   0.00000  -0.00000
                          D3        R4        A4        D4        D6
           D3           0.21556
           R4          -0.00000   0.34560
           A4           0.06446  -0.00000   0.24229
           D4          -0.10807  -0.00000   0.00000   0.21614
           D6          -0.01314   0.00000   0.00000   0.02629   0.90146
           A6           0.00000   0.00000  -0.00000  -0.00000  -0.00000
           R5          -0.00000  -0.00000   0.00000  -0.00000  -0.00000
           A5           0.00000  -0.00000  -0.00000  -0.00000  -0.00000
           D5          -0.00115  -0.00000   0.00000   0.00230   0.07887
           R6          -0.00000   0.00000   0.00000   0.00000  -0.00000
                          A6        R5        A5        D5        R6
           A6           0.16000
           R5          -0.00000   0.00000
           A5           0.16000  -0.00000   0.16000
           D5          -0.00000  -0.00000  -0.00000   0.00690
           R6          -0.00000   0.00000  -0.00000  -0.00000   0.08595
 ITU=  0
     Eigenvalues ---    0.07436   0.13417   0.16000   0.23378   0.32726
     Eigenvalues ---    0.34560   0.34560   0.34560   0.34560   0.38934
     Eigenvalues ---    0.904151000.000001000.000001000.000001000.00000
 RFO step:  Lambda=-1.34965273D-03 EMin= 7.43553518D-02
 Linear search not attempted -- first point.
 Variable       Old X    -DE/DX   Delta X   Delta X   Delta X     New X
                                 (Linear)    (Quad)   (Total)
    R1        2.06396   0.00094   0.00000   0.00270   0.00270   2.06666
    R2        2.06396   0.00082   0.00000   0.00236   0.00236   2.06632
    A2        1.91063   0.00165   0.00000   0.00970   0.00970   1.92033
    R3        2.06396   0.00082   0.00000   0.00236   0.00236   2.06632
    A3        1.91063   0.00165   0.00000   0.00964   0.00964   1.92028
    D3        2.09440   0.00259   0.00000   0.02316   0.02316   2.11755
    R4        2.06396   0.02079   0.00000   0.05994   0.05994   2.12390
    A4        1.91063   0.00022   0.00000  -0.00858  -0.00858   1.90205
    D4        4.18879   0.00000   0.00000   0.01150   0.01150   4.20029
    D6        3.14159  -0.00000   0.00000   0.00000   0.00000   3.14160
    A6        1.48353   0.00106   0.00000   0.00657   0.00657   1.49010
    R5        1.88973  -0.00000   0.00000   0.00000   0.00000   1.88973
    A5        1.57080   0.00106   0.00000   0.00000   0.00000   1.57080
    D5        3.14159  -0.00000   0.00000   0.00000   0.00000   3.14159
    R6        2.47824   0.01208   0.00000   0.00000   0.00000   2.47824
         Item               Value     Threshold  Converged?
 Maximum Force            0.020794     0.000450     NO 
 RMS     Force            0.006381     0.000300     NO 
 Maximum Displacement     0.059936     0.001800     NO 
 RMS     Displacement     0.017480     0.001200     NO 
 Predicted change in Energy=-6.779191D-04
 Lowest energy point so far.  Saving SCF results.
 GradGradGradGradGradGradGradGradGradGradGradGradGradGradGradGradGradGrad

 Leave Link  103 at Fri Aug 23 16:08:34 2019, MaxMem=  2684354560 cpu:         0.1
 (Enter /soft/gaussian/09-e.01/g09/l202.exe)
 ---------------------------------------------------------------------------------------------------
                            Z-MATRIX (ANGSTROMS AND DEGREES)
   CD    Cent   Atom    N1       Length/X        N2       Alpha/Y        N3        Beta/Z          J
 ---------------------------------------------------------------------------------------------------
      1      1  C 
      2      2  H        1   1.093631(     1)
      3      3  H        1   1.093450(     2)      2  110.027(     7)
      4      4  H        1   1.093450(     3)      2  110.024(     8)      3  121.327(    12)      0
      5      5  H        1   1.123918(     4)      2  108.979(     9)      3  240.659(    13)      0
      6         X        5   1.000000(     5)      1   90.000(    10)      2  180.000(    14)      0
      7      6  H        5   1.311429(     6)      6   85.376(    11)      1  180.000(    15)      0
 ---------------------------------------------------------------------------------------------------
                         Z-Matrix orientation:                         
 ---------------------------------------------------------------------
 Center     Atomic      Atomic             Coordinates (Angstroms)
 Number     Number       Type             X           Y           Z
 ---------------------------------------------------------------------
      1          6           0        0.000000    0.000000    0.000000
      2          1           0        0.000000    0.000000    1.093631
      3          1           0        1.027332    0.000000   -0.374461
      4          1           0       -0.534141   -0.877579   -0.374408
      5          1           0       -0.520793    0.926474   -0.365529
      6         -1           0       -0.361428    0.642968   -1.311165
      7          1           0       -1.109653    1.974027   -0.890622
 ---------------------------------------------------------------------
                    Distance matrix (angstroms):
                    1          2          3          4          5
     1  C    0.000000
     2  H    1.093631   0.000000
     3  H    1.093450   1.791844   0.000000
     4  H    1.093450   1.791811   1.791185   0.000000
     5  H    1.123918   1.805194   1.804197   1.804124   0.000000
     6  X    1.504391   2.515369   1.794289   1.794271   1.000000
     7  H    2.433376   3.010875   2.954642   2.954547   1.311429
                    6          7
     6  X    0.000000
     7  H    1.583798   0.000000
 Stoichiometry    CH5(2)
 Framework group  C1[X(CH5)]
 Deg. of freedom    12
 Full point group                 C1      NOp   1
 RotChk:  IX=2 Diff= 1.78D+00
 Largest Abelian subgroup         C1      NOp   1
 Largest concise Abelian subgroup C1      NOp   1
                         Standard orientation:                         
 ---------------------------------------------------------------------
 Center     Atomic      Atomic             Coordinates (Angstroms)
 Number     Number       Type             X           Y           Z
 ---------------------------------------------------------------------
      1          6           0       -0.226657   -0.000103    0.000005
      2          1           0       -0.626892    1.017357    0.024796
      3          1           0       -0.558107   -0.554477    0.882299
      4          1           0       -0.557978   -0.510738   -0.908352
      5          1           0        0.896201    0.048669    0.001205
      6          1           0        2.206719   -0.000191    0.000022
 ---------------------------------------------------------------------
 Rotational constants (GHZ):    156.2236811     56.9935819     56.9837932
 Leave Link  202 at Fri Aug 23 16:08:34 2019, MaxMem=  2684354560 cpu:         0.1
 (Enter /soft/gaussian/09-e.01/g09/l301.exe)
 Standard basis: 6-31G(d) (6D, 7F)
 Ernie: Thresh=  0.10000D-02 Tol=  0.10000D-05 Strict=F.
 There are    25 symmetry adapted cartesian basis functions of A   symmetry.
 There are    25 symmetry adapted basis functions of A   symmetry.
    25 basis functions,    48 primitive gaussians,    25 cartesian basis functions
     6 alpha electrons        5 beta electrons
       nuclear repulsion energy        15.5437729216 Hartrees.
 IExCor=  402 DFT=T Ex+Corr=B3LYP ExCW=0 ScaHFX=  0.200000
 ScaDFX=  0.800000  0.720000  1.000000  0.810000 ScalE2=  1.000000  1.000000
 IRadAn=      5 IRanWt=     -1 IRanGd=            0 ICorTp=0 IEmpDi=  4
 NAtoms=    6 NActive=    6 NUniq=    6 SFac= 1.00D+00 NAtFMM=   60 NAOKFM=F Big=F
 Integral buffers will be    131072 words long.
 Raffenetti 2 integral format.
 Two-electron integral symmetry is turned on.
 Leave Link  301 at Fri Aug 23 16:08:34 2019, MaxMem=  2684354560 cpu:         0.5
 (Enter /soft/gaussian/09-e.01/g09/l302.exe)
 NPDir=0 NMtPBC=     1 NCelOv=     1 NCel=       1 NClECP=     1 NCelD=      1
         NCelK=      1 NCelE2=     1 NClLst=     1 CellRange=     0.0.
 One-electron integrals computed using PRISM.
 NBasis=    25 RedAO= T EigKep=  1.36D-02  NBF=    25
 NBsUse=    25 1.00D-06 EigRej= -1.00D+00 NBFU=    25
 Precomputing XC quadrature grid using
 IXCGrd= 4 IRadAn=           5 IRanWt=          -1 IRanGd=           0 AccXCQ= 0.00D+00.
 Generated NRdTot=       0 NPtTot=           0 NUsed=           0 NTot=          32
 NSgBfM=    25    25    25    25    25 MxSgAt=     6 MxSgA2=     6.
 Leave Link  302 at Fri Aug 23 16:08:35 2019, MaxMem=  2684354560 cpu:         1.7
 (Enter /soft/gaussian/09-e.01/g09/l303.exe)
 DipDrv:  MaxL=1.
 Leave Link  303 at Fri Aug 23 16:08:35 2019, MaxMem=  2684354560 cpu:         0.2
 (Enter /soft/gaussian/09-e.01/g09/l401.exe)
 Initial guess from the checkpoint file:  "/blues/gpfs/home/elliott/Packages/PACC/moldriver/rcdriver/rundir/RXN/CH3.H2/MDUSDFXREFXETQ/0_0/2_1/UHFFFAOYSA-N/CH4.H/HXBDELFRWIQQII/0_0/1_2/UHFFFAOYSA-N/2/ezvlpJU/SCANS/R6/04/RUN/OPTI/A00/Gau-42152.chk"
 B after Tr=    -0.000000    0.000000    0.000000
         Rot=    0.780977   -0.067977   -0.578903    0.224332 Ang= -77.30 deg.
 Guess basis will be translated and rotated to current coordinates.
 JPrj=2 DoOrth=T DoCkMO=T.
 Initial guess <Sx>= 0.0000 <Sy>= 0.0000 <Sz>= 0.5000 <S**2>= 0.7522 S= 0.5011
 Generating alternative initial guess.
 ExpMin= 1.61D-01 ExpMax= 3.05D+03 ExpMxC= 4.57D+02 IAcc=2 IRadAn=         4 AccDes= 0.00D+00
 Harris functional with IExCor=  402 and IRadAn=       4 diagonalized for initial guess.
 HarFok:  IExCor=  402 AccDes= 0.00D+00 IRadAn=         4 IDoV= 1 UseB2=F ITyADJ=14
 ICtDFT=  3500011 ScaDFX=  1.000000  1.000000  1.000000  1.000000
 FoFCou: FMM=F IPFlag=           0 FMFlag=      100000 FMFlg1=           0
         NFxFlg=           0 DoJE=T BraDBF=F KetDBF=T FulRan=T
         wScrn=  0.000000 ICntrl=     500 IOpCl=  0 I1Cent=   200000004 NGrid=           0
         NMat0=    1 NMatS0=      1 NMatT0=    0 NMatD0=    1 NMtDS0=    0 NMtDT0=    0
 Petite list used in FoFCou.
 Harris En= -41.0163236877661    
 Leave Link  401 at Fri Aug 23 16:08:35 2019, MaxMem=  2684354560 cpu:         2.2
 (Enter /soft/gaussian/09-e.01/g09/l502.exe)
 UHF open shell SCF:
 Using DIIS extrapolation, IDIIS=  1040.
 Integral symmetry usage will be decided dynamically.
 Keep R1 and R2 ints in memory in canonical form, NReq=976418.
 IVT=        8268 IEndB=        8268 NGot=  2684354560 MDV=  2684240343
 LenX=  2684240343 LenY=  2684239277
 Requested convergence on RMS density matrix=1.00D-08 within  64 cycles.
 Requested convergence on MAX density matrix=1.00D-06.
 Requested convergence on             energy=1.00D-06.
 No special actions if energy rises.
 FoFCou: FMM=F IPFlag=           0 FMFlag=           0 FMFlg1=           0
         NFxFlg=           0 DoJE=F BraDBF=F KetDBF=F FulRan=T
         wScrn=  0.000000 ICntrl=     600 IOpCl=  0 I1Cent=           0 NGrid=           0
         NMat0=    1 NMatS0=    325 NMatT0=    0 NMatD0=    1 NMtDS0=    0 NMtDT0=    0
 Symmetry not used in FoFCou.
 Integral accuracy reduced to 1.0D-05 until final iterations.

 Cycle   1  Pass 0  IDiag  1:
 E= -41.0116691758253    
 DIIS: error= 2.49D-03 at cycle   1 NSaved=   1.
 NSaved= 1 IEnMin= 1 EnMin= -41.0116691758253     IErMin= 1 ErrMin= 2.49D-03
 ErrMax= 2.49D-03  0.00D+00 EMaxC= 1.00D-01 BMatC= 3.85D-04 BMatP= 3.85D-04
 IDIUse=3 WtCom= 9.75D-01 WtEn= 2.49D-02
 Coeff-Com:  0.100D+01
 Coeff-En:   0.100D+01
 Coeff:      0.100D+01
 Gap=     2.048 Goal=   None    Shift=    0.000
 Gap=     1.969 Goal=   None    Shift=    0.000
 GapD=    1.969 DampG=2.000 DampE=1.000 DampFc=2.0000 IDamp=-1.
 RMSDP=6.36D-04 MaxDP=6.82D-03              OVMax= 1.40D-02

 Cycle   2  Pass 0  IDiag  1:
 E= -41.0118119771062     Delta-E=       -0.000142801281 Rises=F Damp=F
 DIIS: error= 1.48D-03 at cycle   2 NSaved=   2.
 NSaved= 2 IEnMin= 2 EnMin= -41.0118119771062     IErMin= 2 ErrMin= 1.48D-03
 ErrMax= 1.48D-03  0.00D+00 EMaxC= 1.00D-01 BMatC= 1.54D-04 BMatP= 3.85D-04
 IDIUse=3 WtCom= 9.85D-01 WtEn= 1.48D-02
 Coeff-Com:  0.345D+00 0.655D+00
 Coeff-En:   0.000D+00 0.100D+01
 Coeff:      0.340D+00 0.660D+00
 Gap=     0.390 Goal=   None    Shift=    0.000
 Gap=     0.311 Goal=   None    Shift=    0.000
 RMSDP=3.49D-04 MaxDP=3.18D-03 DE=-1.43D-04 OVMax= 2.88D-03

 Cycle   3  Pass 0  IDiag  1:
 E= -41.0118446611837     Delta-E=       -0.000032684078 Rises=F Damp=F
 DIIS: error= 6.78D-04 at cycle   3 NSaved=   3.
 NSaved= 3 IEnMin= 3 EnMin= -41.0118446611837     IErMin= 3 ErrMin= 6.78D-04
 ErrMax= 6.78D-04  0.00D+00 EMaxC= 1.00D-01 BMatC= 3.32D-05 BMatP= 1.54D-04
 IDIUse=3 WtCom= 9.93D-01 WtEn= 6.78D-03
 Coeff-Com: -0.378D-02 0.310D+00 0.694D+00
 Coeff-En:   0.000D+00 0.139D+00 0.861D+00
 Coeff:     -0.375D-02 0.308D+00 0.695D+00
 Gap=     0.389 Goal=   None    Shift=    0.000
 Gap=     0.311 Goal=   None    Shift=    0.000
 RMSDP=9.47D-05 MaxDP=1.09D-03 DE=-3.27D-05 OVMax= 1.85D-03

 Cycle   4  Pass 0  IDiag  1:
 E= -41.0118536618125     Delta-E=       -0.000009000629 Rises=F Damp=F
 DIIS: error= 7.35D-05 at cycle   4 NSaved=   4.
 NSaved= 4 IEnMin= 4 EnMin= -41.0118536618125     IErMin= 4 ErrMin= 7.35D-05
 ErrMax= 7.35D-05  0.00D+00 EMaxC= 1.00D-01 BMatC= 3.14D-07 BMatP= 3.32D-05
 IDIUse=1 WtCom= 1.00D+00 WtEn= 0.00D+00
 Coeff-Com: -0.886D-02 0.170D-01 0.946D-01 0.897D+00
 Coeff:     -0.886D-02 0.170D-01 0.946D-01 0.897D+00
 Gap=     0.389 Goal=   None    Shift=    0.000
 Gap=     0.311 Goal=   None    Shift=    0.000
 RMSDP=2.10D-05 MaxDP=1.77D-04 DE=-9.00D-06 OVMax= 2.71D-04

 Cycle   5  Pass 0  IDiag  1:
 E= -41.0118538175084     Delta-E=       -0.000000155696 Rises=F Damp=F
 DIIS: error= 2.38D-05 at cycle   5 NSaved=   5.
 NSaved= 5 IEnMin= 5 EnMin= -41.0118538175084     IErMin= 5 ErrMin= 2.38D-05
 ErrMax= 2.38D-05  0.00D+00 EMaxC= 1.00D-01 BMatC= 2.95D-08 BMatP= 3.14D-07
 IDIUse=1 WtCom= 1.00D+00 WtEn= 0.00D+00
 Coeff-Com:  0.207D-02-0.314D-01-0.657D-01-0.612D-01 0.116D+01
 Coeff:      0.207D-02-0.314D-01-0.657D-01-0.612D-01 0.116D+01
 Gap=     0.389 Goal=   None    Shift=    0.000
 Gap=     0.311 Goal=   None    Shift=    0.000
 RMSDP=1.05D-05 MaxDP=1.09D-04 DE=-1.56D-07 OVMax= 1.83D-04

 Cycle   6  Pass 0  IDiag  1:
 E= -41.0118538403502     Delta-E=       -0.000000022842 Rises=F Damp=F
 DIIS: error= 4.41D-06 at cycle   6 NSaved=   6.
 NSaved= 6 IEnMin= 6 EnMin= -41.0118538403502     IErMin= 6 ErrMin= 4.41D-06
 ErrMax= 4.41D-06  0.00D+00 EMaxC= 1.00D-01 BMatC= 1.50D-09 BMatP= 2.95D-08
 IDIUse=1 WtCom= 1.00D+00 WtEn= 0.00D+00
 Coeff-Com:  0.550D-03-0.117D-02-0.391D-02-0.701D-01 0.278D-02 0.107D+01
 Coeff:      0.550D-03-0.117D-02-0.391D-02-0.701D-01 0.278D-02 0.107D+01
 Gap=     0.389 Goal=   None    Shift=    0.000
 Gap=     0.311 Goal=   None    Shift=    0.000
 RMSDP=2.44D-06 MaxDP=2.34D-05 DE=-2.28D-08 OVMax= 2.40D-05

 Initial convergence to 1.0D-05 achieved.  Increase integral accuracy.
 Cycle   7  Pass 1  IDiag  1:
 E= -41.0118529342197     Delta-E=        0.000000906131 Rises=F Damp=F
 DIIS: error= 1.10D-06 at cycle   1 NSaved=   1.
 NSaved= 1 IEnMin= 1 EnMin= -41.0118529342197     IErMin= 1 ErrMin= 1.10D-06
 ErrMax= 1.10D-06  0.00D+00 EMaxC= 1.00D-01 BMatC= 6.76D-11 BMatP= 6.76D-11
 IDIUse=1 WtCom= 1.00D+00 WtEn= 0.00D+00
 Coeff-Com:  0.100D+01
 Coeff:      0.100D+01
 Gap=     0.389 Goal=   None    Shift=    0.000
 Gap=     0.311 Goal=   None    Shift=    0.000
 RMSDP=2.44D-06 MaxDP=2.34D-05 DE= 9.06D-07 OVMax= 3.72D-06

 Cycle   8  Pass 1  IDiag  1:
 E= -41.0118529342505     Delta-E=       -0.000000000031 Rises=F Damp=F
 DIIS: error= 8.59D-07 at cycle   2 NSaved=   2.
 NSaved= 2 IEnMin= 2 EnMin= -41.0118529342505     IErMin= 2 ErrMin= 8.59D-07
 ErrMax= 8.59D-07  0.00D+00 EMaxC= 1.00D-01 BMatC= 3.41D-11 BMatP= 6.76D-11
 IDIUse=1 WtCom= 1.00D+00 WtEn= 0.00D+00
 Coeff-Com:  0.364D+00 0.636D+00
 Coeff:      0.364D+00 0.636D+00
 Gap=     0.389 Goal=   None    Shift=    0.000
 Gap=     0.311 Goal=   None    Shift=    0.000
 RMSDP=1.35D-07 MaxDP=1.31D-06 DE=-3.08D-11 OVMax= 2.10D-06

 Cycle   9  Pass 1  IDiag  1:
 E= -41.0118529342599     Delta-E=       -0.000000000009 Rises=F Damp=F
 DIIS: error= 4.34D-07 at cycle   3 NSaved=   3.
 NSaved= 3 IEnMin= 3 EnMin= -41.0118529342599     IErMin= 3 ErrMin= 4.34D-07
 ErrMax= 4.34D-07  0.00D+00 EMaxC= 1.00D-01 BMatC= 7.35D-12 BMatP= 3.41D-11
 IDIUse=1 WtCom= 1.00D+00 WtEn= 0.00D+00
 Coeff-Com: -0.207D+00 0.237D+00 0.971D+00
 Coeff:     -0.207D+00 0.237D+00 0.971D+00
 Gap=     0.389 Goal=   None    Shift=    0.000
 Gap=     0.311 Goal=   None    Shift=    0.000
 RMSDP=8.46D-08 MaxDP=7.97D-07 DE=-9.40D-12 OVMax= 1.05D-06

 Cycle  10  Pass 1  IDiag  1:
 E= -41.0118529342629     Delta-E=       -0.000000000003 Rises=F Damp=F
 DIIS: error= 3.73D-08 at cycle   4 NSaved=   4.
 NSaved= 4 IEnMin= 4 EnMin= -41.0118529342629     IErMin= 4 ErrMin= 3.73D-08
 ErrMax= 3.73D-08  0.00D+00 EMaxC= 1.00D-01 BMatC= 1.26D-13 BMatP= 7.35D-12
 IDIUse=1 WtCom= 1.00D+00 WtEn= 0.00D+00
 Coeff-Com: -0.276D-01-0.265D-01-0.346D-02 0.106D+01
 Coeff:     -0.276D-01-0.265D-01-0.346D-02 0.106D+01
 Gap=     0.389 Goal=   None    Shift=    0.000
 Gap=     0.311 Goal=   None    Shift=    0.000
 RMSDP=1.81D-08 MaxDP=1.28D-07 DE=-2.98D-12 OVMax= 2.06D-07

 Cycle  11  Pass 1  IDiag  1:
 E= -41.0118529342629     Delta-E=       -0.000000000000 Rises=F Damp=F
 DIIS: error= 9.72D-09 at cycle   5 NSaved=   5.
 NSaved= 5 IEnMin= 5 EnMin= -41.0118529342629     IErMin= 5 ErrMin= 9.72D-09
 ErrMax= 9.72D-09  0.00D+00 EMaxC= 1.00D-01 BMatC= 8.68D-15 BMatP= 1.26D-13
 IDIUse=1 WtCom= 1.00D+00 WtEn= 0.00D+00
 Coeff-Com:  0.750D-02-0.201D-01-0.541D-01 0.152D+00 0.914D+00
 Coeff:      0.750D-02-0.201D-01-0.541D-01 0.152D+00 0.914D+00
 Gap=     0.389 Goal=   None    Shift=    0.000
 Gap=     0.311 Goal=   None    Shift=    0.000
 RMSDP=4.10D-09 MaxDP=2.42D-08 DE=-7.82D-14 OVMax= 3.85D-08

 SCF Done:  E(UB3LYP) =  -41.0118529343     A.U. after   11 cycles
            NFock= 11  Conv=0.41D-08     -V/T= 2.0101
 <Sx>= 0.0000 <Sy>= 0.0000 <Sz>= 0.5000 <S**2>= 0.7525 S= 0.5012
 <L.S>= 0.000000000000E+00
 KE= 4.060318809128D+01 PE=-1.250693638834D+02 EE= 2.791054993626D+01
 Annihilation of the first spin contaminant:
 S**2 before annihilation     0.7525,   after     0.7500
 Leave Link  502 at Fri Aug 23 16:08:36 2019, MaxMem=  2684354560 cpu:         5.8
 (Enter /soft/gaussian/09-e.01/g09/l508.exe)
 QCSCF skips out because SCF is already converged.
 Leave Link  508 at Fri Aug 23 16:08:36 2019, MaxMem=  2684354560 cpu:         0.0
 (Enter /soft/gaussian/09-e.01/g09/l701.exe)
 Compute integral first derivatives.
 ... and contract with generalized density number  0.
 Leave Link  701 at Fri Aug 23 16:08:36 2019, MaxMem=  2684354560 cpu:         1.6
 (Enter /soft/gaussian/09-e.01/g09/l702.exe)
 L702 exits ... SP integral derivatives will be done elsewhere.
 Leave Link  702 at Fri Aug 23 16:08:36 2019, MaxMem=  2684354560 cpu:         0.1
 (Enter /soft/gaussian/09-e.01/g09/l703.exe)
 Compute integral first derivatives, UseDBF=F ICtDFT=           0.
 Integral derivatives from FoFJK, PRISM(SPDF).
 Calling FoFJK, ICntrl=      2127 FMM=F ISym2X=0 I1Cent= 0 IOpClX= 1 NMat=1 NMatS=1 NMatT=0.
 FoFJK:  IHMeth= 1 ICntrl=    2127 DoSepK=F KAlg= 0 I1Cent=   0 FoldK=F
 IRaf=         0 NMat=   1 IRICut=       1 DoRegI=T DoRafI=F ISym2E= 0.
 FoFCou: FMM=F IPFlag=           0 FMFlag=      100000 FMFlg1=         800
         NFxFlg=           0 DoJE=F BraDBF=F KetDBF=F FulRan=T
         wScrn=  0.000000 ICntrl=    2127 IOpCl=  1 I1Cent=           0 NGrid=           0
         NMat0=    1 NMatS0=      1 NMatT0=    0 NMatD0=    1 NMtDS0=    0 NMtDT0=    0
 Symmetry not used in FoFCou.
 Leave Link  703 at Fri Aug 23 16:08:36 2019, MaxMem=  2684354560 cpu:         2.3
 (Enter /soft/gaussian/09-e.01/g09/l716.exe)
 Dipole        =-1.71517589D-01-2.00459647D-03-6.47214408D-05
 ***** Axes restored to original set *****
 -------------------------------------------------------------------
 Center     Atomic                   Forces (Hartrees/Bohr)
 Number     Number              X              Y              Z
 -------------------------------------------------------------------
      1        6           0.002558024   -0.004569279    0.002318553
      2        1          -0.000437800    0.000784463   -0.000343906
      3        1          -0.000430095    0.000819382   -0.000307175
      4        1          -0.000472667    0.000788333   -0.000307699
      5        1           0.003302347   -0.005863326    0.002241469
      6        1          -0.004519809    0.008040427   -0.003601243
 -------------------------------------------------------------------
 Cartesian Forces:  Max     0.008040427 RMS     0.003196938
 -----------------------------------------------------------------------------------------------
                       Internal Coordinate Forces (Hartree/Bohr or radian)
  Cent   Atom   N1       Length/X         N2         Alpha/Y        N3         Beta/Z          J
 -----------------------------------------------------------------------------------------------
      1  C 
      2  H        1  -0.000344(     1)
      3  H        1  -0.000299(     2)      2   0.000901(     7)
      4  H        1  -0.000296(     3)      2   0.000900(     8)      3   0.001580(    12)     0
      5  H        1   0.002801(     4)      2   0.000034(     9)      3   0.000011(    13)     0
         X        5   0.000000(     5)      1   0.000974(    10)      2   0.000000(    14)     0
      6  H        5   0.009894(     6)      6   0.000974(    11)      1   0.000000(    15)     0
 -----------------------------------------------------------------------------------------------
 Internal  Forces:  Max     0.009894013 RMS     0.002733120
 Leave Link  716 at Fri Aug 23 16:08:36 2019, MaxMem=  2684354560 cpu:         0.2
 (Enter /soft/gaussian/09-e.01/g09/l103.exe)

 GradGradGradGradGradGradGradGradGradGradGradGradGradGradGradGradGradGrad
 Berny optimization.
 Search for a local minimum.
 Step number   2 out of a maximum of   25
 All quantities printed in internal units (Hartrees-Bohrs-Radians)
 Update second derivatives using D2CorN and points    1    2
 DE= -7.69D-04 DEPred=-6.78D-04 R= 1.13D+00
 TightC=F SS=  1.41D+00  RLast= 6.77D-02 DXNew= 5.0454D-01 2.0310D-01
 Trust test= 1.13D+00 RLast= 6.77D-02 DXMaxT set to 3.00D-01
 The second derivative matrix:
                          R1        R2        A2        R3        A3
           R1           0.34580
           R2           0.00018   0.34575
           A2           0.00011   0.00009   0.24192
           R3           0.00018   0.00015   0.00009   0.34575
           A3           0.00010   0.00009   0.03968   0.00009   0.24193
           D3           0.00042   0.00036  -0.06869   0.00036  -0.00493
           R4           0.00147   0.00127  -0.00868   0.00126  -0.00866
           A4          -0.00034  -0.00029   0.04298  -0.00029   0.04298
           D4           0.00044   0.00038   0.06265   0.00038  -0.06486
           D6           0.00000   0.00000  -0.02415   0.00000   0.02415
           A6          -0.00004  -0.00003  -0.00166  -0.00003  -0.00165
           R5           0.00000  -0.00000  -0.00000   0.00000  -0.00000
           A5          -0.00028  -0.00025  -0.00102  -0.00025  -0.00102
           D5          -0.00000  -0.00000  -0.00211  -0.00000   0.00211
           R6           0.00064   0.00056   0.00231   0.00056   0.00230
                          D3        R4        A4        D4        D6
           D3           0.20774
           R4          -0.01700   0.31002
           A4           0.06580   0.00225   0.24238
           D4          -0.11000  -0.00338  -0.00006   0.21615
           D6          -0.01315  -0.00000   0.00000   0.02629   0.90146
           A6          -0.00355  -0.00826   0.00087  -0.00121  -0.00000
           R5           0.00000  -0.00000   0.00000  -0.00000  -0.00000
           A5          -0.00244  -0.00631   0.00090  -0.00121  -0.00000
           D5          -0.00115  -0.00000   0.00000   0.00230   0.07887
           R6           0.00552   0.01429  -0.00205   0.00274   0.00000
                          A6        R5        A5        D5        R6
           A6           0.15862
           R5          -0.00000   0.00000
           A5           0.15931  -0.00000   0.16000
           D5          -0.00000  -0.00000  -0.00000   0.00690
           R6           0.00157   0.00000  -0.00000  -0.00000   0.08595
 ITU=  1  0
     Eigenvalues ---    0.06504   0.13198   0.15853   0.23378   0.30762
     Eigenvalues ---    0.32968   0.34560   0.34560   0.34628   0.38926
     Eigenvalues ---    0.904151000.000001000.000001000.000001000.00000
 RFO step:  Lambda=-4.58358265D-05 EMin= 6.50420333D-02
 Quartic linear search produced a step of  0.22784.
 Variable       Old X    -DE/DX   Delta X   Delta X   Delta X     New X
                                 (Linear)    (Quad)   (Total)
    R1        2.06666  -0.00034   0.00062  -0.00182  -0.00120   2.06546
    R2        2.06632  -0.00030   0.00054  -0.00158  -0.00105   2.06527
    A2        1.92033   0.00090   0.00221   0.00575   0.00796   1.92829
    R3        2.06632  -0.00030   0.00054  -0.00157  -0.00104   2.06528
    A3        1.92028   0.00090   0.00220   0.00625   0.00845   1.92872
    D3        2.11755   0.00158   0.00528   0.01613   0.02141   2.13897
    R4        2.12390   0.00280   0.01366  -0.00134   0.01231   2.13621
    A4        1.90205   0.00003  -0.00196  -0.00679  -0.00875   1.89330
    D4        4.20029   0.00001   0.00262   0.00886   0.01148   4.21176
    D6        3.14160   0.00000   0.00000  -0.00004  -0.00004   3.14156
    A6        1.49010   0.00097   0.00150   0.00681   0.00831   1.49841
    R5        1.88973   0.00000   0.00000   0.00000   0.00000   1.88973
    A5        1.57080   0.00097   0.00000   0.00000   0.00000   1.57080
    D5        3.14159   0.00000   0.00000   0.00000   0.00000   3.14159
    R6        2.47824   0.00989   0.00000   0.00000   0.00000   2.47824
         Item               Value     Threshold  Converged?
 Maximum Force            0.002801     0.000450     NO 
 RMS     Force            0.001096     0.000300     NO 
 Maximum Displacement     0.021411     0.001800     NO 
 RMS     Displacement     0.008269     0.001200     NO 
 Predicted change in Energy=-3.997541D-05
 Lowest energy point so far.  Saving SCF results.
 GradGradGradGradGradGradGradGradGradGradGradGradGradGradGradGradGradGrad

 Leave Link  103 at Fri Aug 23 16:08:36 2019, MaxMem=  2684354560 cpu:         0.1
 (Enter /soft/gaussian/09-e.01/g09/l202.exe)
 ---------------------------------------------------------------------------------------------------
                            Z-MATRIX (ANGSTROMS AND DEGREES)
   CD    Cent   Atom    N1       Length/X        N2       Alpha/Y        N3        Beta/Z          J
 ---------------------------------------------------------------------------------------------------
      1      1  C 
      2      2  H        1   1.092993(     1)
      3      3  H        1   1.092896(     2)      2  110.483(     7)
      4      4  H        1   1.092901(     3)      2  110.508(     8)      3  122.554(    12)      0
      5      5  H        1   1.130434(     4)      2  108.478(     9)      3  241.316(    13)      0
      6         X        5   1.000000(     5)      1   90.000(    10)      2  180.000(    14)      0
      7      6  H        5   1.311429(     6)      6   85.852(    11)      1  179.998(    15)      0
 ---------------------------------------------------------------------------------------------------
                         Z-Matrix orientation:                         
 ---------------------------------------------------------------------
 Center     Atomic      Atomic             Coordinates (Angstroms)
 Number     Number       Type             X           Y           Z
 ---------------------------------------------------------------------
      1          6           0        0.000000    0.000000    0.000000
      2          1           0        0.000000    0.000000    1.092993
      3          1           0        1.023801    0.000000   -0.382432
      4          1           0       -0.550810   -0.862812   -0.382880
      5          1           0       -0.514605    0.940582   -0.358284
      6         -1           0       -0.362480    0.662533   -1.306728
      7          1           0       -1.095575    2.002551   -0.862806
 ---------------------------------------------------------------------
                    Distance matrix (angstroms):
                    1          2          3          4          5
     1  C    0.000000
     2  H    1.092993   0.000000
     3  H    1.092896   1.795841   0.000000
     4  H    1.092901   1.796117   1.795506   0.000000
     5  H    1.130434   1.804361   1.803322   1.803926   0.000000
     6  X    1.509265   2.515752   1.793056   1.793221   1.000000
     7  H    2.440272   3.005935   2.955118   2.955910   1.311429
                    6          7
     6  X    0.000000
     7  H    1.590643   0.000000
 Stoichiometry    CH5(2)
 Framework group  C1[X(CH5)]
 Deg. of freedom    12
 Full point group                 C1      NOp   1
 RotChk:  IX=0 Diff= 3.98D-01
 Largest Abelian subgroup         C1      NOp   1
 Largest concise Abelian subgroup C1      NOp   1
                         Standard orientation:                         
 ---------------------------------------------------------------------
 Center     Atomic      Atomic             Coordinates (Angstroms)
 Number     Number       Type             X           Y           Z
 ---------------------------------------------------------------------
      1          6           0       -0.230327   -0.000258    0.000006
      2          1           0       -0.616858    0.989458   -0.256294
      3          1           0       -0.554647   -0.289580    1.002768
      4          1           0       -0.555729   -0.740562   -0.735178
      5          1           0        0.899249    0.042341   -0.011128
      6          1           0        2.209946   -0.000110   -0.000208
 ---------------------------------------------------------------------
 Rotational constants (GHZ):    155.4923217     56.8316793     56.8235069
 Leave Link  202 at Fri Aug 23 16:08:36 2019, MaxMem=  2684354560 cpu:         0.1
 (Enter /soft/gaussian/09-e.01/g09/l301.exe)
 Standard basis: 6-31G(d) (6D, 7F)
 Ernie: Thresh=  0.10000D-02 Tol=  0.10000D-05 Strict=F.
 There are    25 symmetry adapted cartesian basis functions of A   symmetry.
 There are    25 symmetry adapted basis functions of A   symmetry.
    25 basis functions,    48 primitive gaussians,    25 cartesian basis functions
     6 alpha electrons        5 beta electrons
       nuclear repulsion energy        15.5268347385 Hartrees.
 IExCor=  402 DFT=T Ex+Corr=B3LYP ExCW=0 ScaHFX=  0.200000
 ScaDFX=  0.800000  0.720000  1.000000  0.810000 ScalE2=  1.000000  1.000000
 IRadAn=      5 IRanWt=     -1 IRanGd=            0 ICorTp=0 IEmpDi=  4
 NAtoms=    6 NActive=    6 NUniq=    6 SFac= 1.00D+00 NAtFMM=   60 NAOKFM=F Big=F
 Integral buffers will be    131072 words long.
 Raffenetti 2 integral format.
 Two-electron integral symmetry is turned on.
 Leave Link  301 at Fri Aug 23 16:08:36 2019, MaxMem=  2684354560 cpu:         0.5
 (Enter /soft/gaussian/09-e.01/g09/l302.exe)
 NPDir=0 NMtPBC=     1 NCelOv=     1 NCel=       1 NClECP=     1 NCelD=      1
         NCelK=      1 NCelE2=     1 NClLst=     1 CellRange=     0.0.
 One-electron integrals computed using PRISM.
 NBasis=    25 RedAO= T EigKep=  1.37D-02  NBF=    25
 NBsUse=    25 1.00D-06 EigRej= -1.00D+00 NBFU=    25
 Precomputing XC quadrature grid using
 IXCGrd= 4 IRadAn=           5 IRanWt=          -1 IRanGd=           0 AccXCQ= 0.00D+00.
 Generated NRdTot=       0 NPtTot=           0 NUsed=           0 NTot=          32
 NSgBfM=    25    25    25    25    25 MxSgAt=     6 MxSgA2=     6.
 Leave Link  302 at Fri Aug 23 16:08:36 2019, MaxMem=  2684354560 cpu:         1.6
 (Enter /soft/gaussian/09-e.01/g09/l303.exe)
 DipDrv:  MaxL=1.
 Leave Link  303 at Fri Aug 23 16:08:36 2019, MaxMem=  2684354560 cpu:         0.2
 (Enter /soft/gaussian/09-e.01/g09/l401.exe)
 Initial guess from the checkpoint file:  "/blues/gpfs/home/elliott/Packages/PACC/moldriver/rcdriver/rundir/RXN/CH3.H2/MDUSDFXREFXETQ/0_0/2_1/UHFFFAOYSA-N/CH4.H/HXBDELFRWIQQII/0_0/1_2/UHFFFAOYSA-N/2/ezvlpJU/SCANS/R6/04/RUN/OPTI/A00/Gau-42152.chk"
 B after Tr=    -0.000000    0.000000   -0.000000
         Rot=    0.990340    0.138655   -0.000028    0.000861 Ang=  15.94 deg.
 Guess basis will be translated and rotated to current coordinates.
 JPrj=2 DoOrth=T DoCkMO=T.
 Initial guess <Sx>= 0.0000 <Sy>= 0.0000 <Sz>= 0.5000 <S**2>= 0.7525 S= 0.5013
 Generating alternative initial guess.
 ExpMin= 1.61D-01 ExpMax= 3.05D+03 ExpMxC= 4.57D+02 IAcc=2 IRadAn=         4 AccDes= 0.00D+00
 Harris functional with IExCor=  402 and IRadAn=       4 diagonalized for initial guess.
 HarFok:  IExCor=  402 AccDes= 0.00D+00 IRadAn=         4 IDoV= 1 UseB2=F ITyADJ=14
 ICtDFT=  3500011 ScaDFX=  1.000000  1.000000  1.000000  1.000000
 FoFCou: FMM=F IPFlag=           0 FMFlag=      100000 FMFlg1=           0
         NFxFlg=           0 DoJE=T BraDBF=F KetDBF=T FulRan=T
         wScrn=  0.000000 ICntrl=     500 IOpCl=  0 I1Cent=   200000004 NGrid=           0
         NMat0=    1 NMatS0=      1 NMatT0=    0 NMatD0=    1 NMtDS0=    0 NMtDT0=    0
 Petite list used in FoFCou.
 Harris En= -41.0161336646108    
 Leave Link  401 at Fri Aug 23 16:08:37 2019, MaxMem=  2684354560 cpu:         2.1
 (Enter /soft/gaussian/09-e.01/g09/l502.exe)
 UHF open shell SCF:
 Using DIIS extrapolation, IDIIS=  1040.
 Integral symmetry usage will be decided dynamically.
 Keep R1 and R2 ints in memory in canonical form, NReq=976418.
 IVT=        8268 IEndB=        8268 NGot=  2684354560 MDV=  2684240343
 LenX=  2684240343 LenY=  2684239277
 Requested convergence on RMS density matrix=1.00D-08 within  64 cycles.
 Requested convergence on MAX density matrix=1.00D-06.
 Requested convergence on             energy=1.00D-06.
 No special actions if energy rises.
 FoFCou: FMM=F IPFlag=           0 FMFlag=           0 FMFlg1=           0
         NFxFlg=           0 DoJE=F BraDBF=F KetDBF=F FulRan=T
         wScrn=  0.000000 ICntrl=     600 IOpCl=  0 I1Cent=           0 NGrid=           0
         NMat0=    1 NMatS0=    325 NMatT0=    0 NMatD0=    1 NMtDS0=    0 NMtDT0=    0
 Symmetry not used in FoFCou.
 Integral accuracy reduced to 1.0D-05 until final iterations.

 Cycle   1  Pass 0  IDiag  1:
 E= -41.0118828413255    
 DIIS: error= 7.46D-04 at cycle   1 NSaved=   1.
 NSaved= 1 IEnMin= 1 EnMin= -41.0118828413255     IErMin= 1 ErrMin= 7.46D-04
 ErrMax= 7.46D-04  0.00D+00 EMaxC= 1.00D-01 BMatC= 4.41D-05 BMatP= 4.41D-05
 IDIUse=3 WtCom= 9.93D-01 WtEn= 7.46D-03
 Coeff-Com:  0.100D+01
 Coeff-En:   0.100D+01
 Coeff:      0.100D+01
 Gap=     2.067 Goal=   None    Shift=    0.000
 Gap=     2.010 Goal=   None    Shift=    0.000
 RMSDP=2.00D-04 MaxDP=1.78D-03              OVMax= 4.03D-03

 Cycle   2  Pass 0  IDiag  1:
 E= -41.0119036173484     Delta-E=       -0.000020776023 Rises=F Damp=F
 DIIS: error= 2.19D-04 at cycle   2 NSaved=   2.
 NSaved= 2 IEnMin= 2 EnMin= -41.0119036173484     IErMin= 2 ErrMin= 2.19D-04
 ErrMax= 2.19D-04  0.00D+00 EMaxC= 1.00D-01 BMatC= 3.26D-06 BMatP= 4.41D-05
 IDIUse=3 WtCom= 9.98D-01 WtEn= 2.19D-03
 Coeff-Com:  0.663D-01 0.934D+00
 Coeff-En:   0.000D+00 0.100D+01
 Coeff:      0.662D-01 0.934D+00
 Gap=     0.388 Goal=   None    Shift=    0.000
 Gap=     0.312 Goal=   None    Shift=    0.000
 RMSDP=8.37D-05 MaxDP=8.31D-04 DE=-2.08D-05 OVMax= 7.80D-04

 Cycle   3  Pass 0  IDiag  1:
 E= -41.0119038052391     Delta-E=       -0.000000187891 Rises=F Damp=F
 DIIS: error= 2.16D-04 at cycle   3 NSaved=   3.
 NSaved= 3 IEnMin= 3 EnMin= -41.0119038052391     IErMin= 3 ErrMin= 2.16D-04
 ErrMax= 2.16D-04  0.00D+00 EMaxC= 1.00D-01 BMatC= 3.29D-06 BMatP= 3.26D-06
 IDIUse=3 WtCom= 9.98D-01 WtEn= 2.16D-03
 Coeff-Com: -0.246D-01 0.509D+00 0.515D+00
 Coeff-En:   0.000D+00 0.445D+00 0.555D+00
 Coeff:     -0.246D-01 0.509D+00 0.515D+00
 Gap=     0.388 Goal=   None    Shift=    0.000
 Gap=     0.311 Goal=   None    Shift=    0.000
 RMSDP=3.01D-05 MaxDP=2.84D-04 DE=-1.88D-07 OVMax= 5.11D-04

 Cycle   4  Pass 0  IDiag  1:
 E= -41.0119046891653     Delta-E=       -0.000000883926 Rises=F Damp=F
 DIIS: error= 1.65D-05 at cycle   4 NSaved=   4.
 NSaved= 4 IEnMin= 4 EnMin= -41.0119046891653     IErMin= 4 ErrMin= 1.65D-05
 ErrMax= 1.65D-05  0.00D+00 EMaxC= 1.00D-01 BMatC= 1.62D-08 BMatP= 3.26D-06
 IDIUse=1 WtCom= 1.00D+00 WtEn= 0.00D+00
 Coeff-Com: -0.218D-02-0.535D-01-0.385D-02 0.106D+01
 Coeff:     -0.218D-02-0.535D-01-0.385D-02 0.106D+01
[...]
 Internal  Forces:  Max     0.009291365 RMS     0.002399024
 Leave Link  716 at Fri Aug 23 16:08:44 2019, MaxMem=  2684354560 cpu:         0.2
 (Enter /soft/gaussian/09-e.01/g09/l103.exe)

 GradGradGradGradGradGradGradGradGradGradGradGradGradGradGradGradGradGrad
 Berny optimization.
 Search for a local minimum.
 Step number   7 out of a maximum of   25
 All quantities printed in internal units (Hartrees-Bohrs-Radians)
 Update second derivatives using D2CorN and points    1    2    6    7
 DE= -3.18D-06 DEPred=-3.22D-06 R= 9.87D-01
 TightC=F SS=  1.41D+00  RLast= 2.31D-02 DXNew= 5.0454D-01 6.9260D-02
 Trust test= 9.87D-01 RLast= 2.31D-02 DXMaxT set to 3.00D-01
 The second derivative matrix:
                          R1        R2        A2        R3        A3
           R1           0.34589
           R2           0.00026   0.34582
           A2           0.00051   0.00044   0.24184
           R3           0.00028   0.00024   0.00048   0.34587
           A3           0.00061   0.00054   0.03937   0.00060   0.24142
           D3           0.00172   0.00151  -0.06841   0.00162  -0.00519
           R4           0.00386   0.00335  -0.01164   0.00353  -0.01181
           A4          -0.00088  -0.00077   0.04181  -0.00083   0.04192
           D4           0.00110   0.00097   0.06413   0.00105  -0.06356
           D6          -0.00001  -0.00001  -0.02412  -0.00001   0.02417
           A6           0.00095   0.00009   0.00019  -0.00001   0.00033
           R5          -0.00000  -0.00000   0.00000  -0.00000   0.00000
           A5           0.00494   0.00453  -0.01357   0.00493  -0.01172
           D5          -0.00000  -0.00000  -0.00211  -0.00000   0.00211
           R6           0.00113   0.00099   0.00384   0.00101   0.00388
                          D3        R4        A4        D4        D6
           D3           0.20930
           R4          -0.02114   0.30646
           A4           0.06243   0.00052   0.24479
           D4          -0.10558  -0.00173  -0.00333   0.22044
           D6          -0.01308   0.00001  -0.00002   0.02631   0.90146
           A6          -0.00204  -0.00058   0.00362  -0.00055   0.00008
           R5           0.00000  -0.00000  -0.00000  -0.00000  -0.00000
           A5          -0.03884  -0.00427   0.01475  -0.01624  -0.00012
           D5          -0.00115  -0.00000  -0.00000   0.00230   0.07887
           R6           0.00911   0.02397  -0.00342   0.00463  -0.00000
                          A6        R5        A5        D5        R6
           A6           0.01201
           R5           0.00000   0.00000
           A5           0.02046  -0.00000   0.16000
           D5           0.00001  -0.00000  -0.00000   0.00690
           R6           0.00045   0.00000  -0.00000  -0.00000   0.08595
 ITU=  1  1  1  1  1  1  0
     Eigenvalues ---    0.01184   0.07424   0.13173   0.23379   0.30041
     Eigenvalues ---    0.33128   0.34560   0.34560   0.34746   0.38921
     Eigenvalues ---    0.904151000.000001000.000001000.000001000.00000
 RFO step:  Lambda= 0.00000000D+00 EMin= 1.18362129D-02
 Quartic linear search produced a step of -0.00912.
 Variable       Old X    -DE/DX   Delta X   Delta X   Delta X     New X
                                 (Linear)    (Quad)   (Total)
    R1        2.06500  -0.00000   0.00000  -0.00000  -0.00000   2.06500
    R2        2.06500   0.00000  -0.00000   0.00000   0.00000   2.06500
    A2        1.92877   0.00000   0.00000   0.00001   0.00001   1.92878
    R3        2.06502  -0.00000  -0.00000  -0.00001  -0.00001   2.06500
    A3        1.92871   0.00000   0.00000   0.00005   0.00005   1.92876
    D3        2.14036   0.00000   0.00000   0.00009   0.00010   2.14045
    R4        2.13602   0.00001   0.00000   0.00004   0.00004   2.13606
    A4        1.89218  -0.00000   0.00000  -0.00004  -0.00004   1.89214
    D4        4.21169   0.00001   0.00000   0.00010   0.00011   4.21179
    D6        3.14159   0.00000   0.00000  -0.00000  -0.00000   3.14159
    A6        1.57099  -0.00000  -0.00021   0.00005  -0.00016   1.57083
    R5        1.88973   0.00000   0.00000   0.00000   0.00000   1.88973
    A5        1.57080  -0.00000   0.00000   0.00000   0.00000   1.57080
    D5        3.14159  -0.00000   0.00000   0.00000   0.00000   3.14159
    R6        2.47824   0.00929   0.00000   0.00000   0.00000   2.47824
         Item               Value     Threshold  Converged?
 Maximum Force            0.000011     0.000450     YES
 RMS     Force            0.000005     0.000300     YES
 Maximum Displacement     0.000160     0.001800     YES
 RMS     Displacement     0.000059     0.001200     YES
 Predicted change in Energy=-1.218328D-09
 Optimization completed.
    -- Stationary point found.
                       ----------------------------
                       !   Optimized Parameters   !
                       ! (Angstroms and Degrees)  !
 ----------------------                            ----------------------
 !      Name          Value   Derivative information (Atomic Units)     !
 ------------------------------------------------------------------------
 !       R1          1.0928   -DE/DX =    0.0                           !
 !       R2          1.0927   -DE/DX =    0.0                           !
 !       A2        110.5104   -DE/DX =    0.0                           !
 !       R3          1.0928   -DE/DX =    0.0                           !
 !       A3        110.5071   -DE/DX =    0.0                           !
 !       D3        122.6335   -DE/DX =    0.0                           !
 !       R4          1.1303   -DE/DX =    0.0                           !
 !       A4        108.414    -DE/DX =    0.0                           !
 !       D4        241.3118   -DE/DX =    0.0                           !
 !       D6        179.9997   -DE/DX =    0.0                           !
 !       A6         90.011    -DE/DX =    0.0                           !
 !       R5          1.0      -DE/DX =    0.0                           !
 !       A5         90.0      -DE/DX =    0.0                           !
 !       D5        180.0      -DE/DX =    0.0                           !
 !       R6          1.3114   -DE/DX =    0.0093                        !
 ------------------------------------------------------------------------
 Lowest energy point so far.  Saving SCF results.
 GradGradGradGradGradGradGradGradGradGradGradGradGradGradGradGradGradGrad

 Largest change from initial coordinates is atom    6       2.728 Angstoms.
 Leave Link  103 at Fri Aug 23 16:08:44 2019, MaxMem=  2684354560 cpu:         0.1
 (Enter /soft/gaussian/09-e.01/g09/l202.exe)
 ---------------------------------------------------------------------------------------------------
                            Z-MATRIX (ANGSTROMS AND DEGREES)
   CD    Cent   Atom    N1       Length/X        N2       Alpha/Y        N3        Beta/Z          J
 ---------------------------------------------------------------------------------------------------
      1      1  C 
      2      2  H        1   1.092751(     1)
      3      3  H        1   1.092749(     2)      2  110.510(     7)
      4      4  H        1   1.092759(     3)      2  110.507(     8)      3  122.633(    12)      0
      5      5  H        1   1.130334(     4)      2  108.414(     9)      3  241.312(    13)      0
      6         X        5   1.000000(     5)      1   90.000(    10)      2  180.000(    14)      0
      7      6  H        5   1.311429(     6)      6   90.011(    11)      1  180.000(    15)      0
 ---------------------------------------------------------------------------------------------------
                         Z-Matrix orientation:                         
 ---------------------------------------------------------------------
 Center     Atomic      Atomic             Coordinates (Angstroms)
 Number     Number       Type             X           Y           Z
 ---------------------------------------------------------------------
      1          6           0        0.000000    0.000000    0.000000
      2          1           0        0.000000    0.000000    1.092751
      3          1           0        1.023478    0.000000   -0.382875
      4          1           0       -0.551941   -0.861936   -0.382820
      5          1           0       -0.514827    0.940810   -0.357050
      6         -1           0       -0.363191    0.663705   -1.305849
      7          1           0       -1.112168    2.032423   -0.771067
 ---------------------------------------------------------------------
                    Distance matrix (angstroms):
                    1          2          3          4          5
     1  C    0.000000
     2  H    1.092751   0.000000
     3  H    1.092749   1.795823   0.000000
     4  H    1.092759   1.795796   1.795794   0.000000
     5  H    1.130334   1.803357   1.803378   1.803312   0.000000
     6  X    1.509190   2.515094   1.793108   1.793095   1.000000
     7  H    2.441763   2.973463   2.973621   2.973534   1.311429
                    6          7
     6  X    0.000000
     7  H    1.649348   0.000000
 Stoichiometry    CH5(2)
 Framework group  C1[X(CH5)]
 Deg. of freedom    12
 Full point group                 C1      NOp   1
 RotChk:  IX=2 Diff= 7.85D-17
 Largest Abelian subgroup         C1      NOp   1
 Largest concise Abelian subgroup C1      NOp   1
                         Standard orientation:                         
 ---------------------------------------------------------------------
 Center     Atomic      Atomic             Coordinates (Angstroms)
 Number     Number       Type             X           Y           Z
 ---------------------------------------------------------------------
      1          6           0       -0.230600   -0.000001    0.000010
      2          1           0       -0.575673    0.907019    0.502350
      3          1           0       -0.575873   -0.888520    0.534257
      4          1           0       -0.575749   -0.018383   -1.036647
      5          1           0        0.899734   -0.000104   -0.000042
      6          1           0        2.211163   -0.000009    0.000025
 ---------------------------------------------------------------------
 Rotational constants (GHZ):    155.4941431     56.7955803     56.7951520
 Leave Link  202 at Fri Aug 23 16:08:44 2019, MaxMem=  2684354560 cpu:         0.1
 (Enter /soft/gaussian/09-e.01/g09/l601.exe)
 Copying SCF densities to generalized density rwf, IOpCl= 1 IROHF=0.

 **********************************************************************

            Population analysis using the SCF density.

 **********************************************************************

 Orbital symmetries:
 Alpha Orbitals:
       Occupied  (A) (A) (A) (A) (A) (A)
       Virtual   (A) (A) (A) (A) (A) (A) (A) (A) (A) (A) (A) (A)
                 (A) (A) (A) (A) (A) (A) (A)
 Beta  Orbitals:
       Occupied  (A) (A) (A) (A) (A)
       Virtual   (A) (A) (A) (A) (A) (A) (A) (A) (A) (A) (A) (A)
                 (A) (A) (A) (A) (A) (A) (A) (A)
 The electronic state is 2-A.
 Alpha  occ. eigenvalues --  -10.17788  -0.70199  -0.43419  -0.39907  -0.39907
 Alpha  occ. eigenvalues --   -0.26441
 Alpha virt. eigenvalues --    0.12382   0.17080   0.17080   0.23685   0.52707
 Alpha virt. eigenvalues --    0.52707   0.54093   0.73314   0.89172   0.89173
 Alpha virt. eigenvalues --    0.92999   0.95945   1.19652   1.64465   1.64465
 Alpha virt. eigenvalues --    2.19781   2.23068   2.23068   4.19800
  Beta  occ. eigenvalues --  -10.17412  -0.69256  -0.40175  -0.39664  -0.39663
  Beta virt. eigenvalues --   -0.08519   0.12701   0.17312   0.17313   0.25807
  Beta virt. eigenvalues --    0.52762   0.52762   0.55612   0.86174   0.89483
  Beta virt. eigenvalues --    0.89484   0.93607   0.96453   1.21186   1.65581
  Beta virt. eigenvalues --    1.65581   2.21054   2.23692   2.23693   4.20581
          Condensed to atoms (all electrons):
               1          2          3          4          5          6
     1  C    5.159991   0.380257   0.380254   0.380250   0.341644  -0.066666
     2  H    0.380257   0.530897  -0.025238  -0.025241  -0.027424   0.001956
     3  H    0.380254  -0.025238   0.530893  -0.025241  -0.027418   0.001956
     4  H    0.380250  -0.025241  -0.025241   0.530911  -0.027425   0.001956
     5  H    0.341644  -0.027424  -0.027418  -0.027425   0.604709   0.040241
     6  H   -0.066666   0.001956   0.001956   0.001956   0.040241   1.034873
          Atomic-Atomic Spin Densities.
               1          2          3          4          5          6
     1  C    0.285862  -0.010497  -0.010499  -0.010500   0.031375  -0.083064
     2  H   -0.010497  -0.000987   0.001973   0.001973   0.001320   0.003120
     3  H   -0.010499   0.001973  -0.000982   0.001973   0.001319   0.003120
     4  H   -0.010500   0.001973   0.001973  -0.000983   0.001320   0.003121
     5  H    0.031375   0.001320   0.001319   0.001320  -0.080640  -0.029726
     6  H   -0.083064   0.003120   0.003120   0.003121  -0.029726   0.985076
 Mulliken charges and spin densities:
               1          2
     1  C   -0.575730   0.202677
     2  H    0.164793  -0.003099
     3  H    0.164794  -0.003096
     4  H    0.164789  -0.003096
     5  H    0.095671  -0.075033
     6  H   -0.014317   0.881647
 Sum of Mulliken charges =  -0.00000   1.00000
 Mulliken charges and spin densities with hydrogens summed into heavy atoms:
               1          2
     1  C   -0.000000   1.000000
 Electronic spatial extent (au):  <R**2>=             58.5253
 Charge=              0.0000 electrons
 Dipole moment (field-independent basis, Debye):
    X=             -0.4377    Y=              0.0000    Z=             -0.0000  Tot=              0.4377
 Quadrupole moment (field-independent basis, Debye-Ang):
   XX=            -10.6421   YY=             -9.4524   ZZ=             -9.4525
   XY=              0.0001   XZ=             -0.0001   YZ=             -0.0000
 Traceless Quadrupole moment (field-independent basis, Debye-Ang):
   XX=             -0.7931   YY=              0.3966   ZZ=              0.3965
   XY=              0.0001   XZ=             -0.0001   YZ=             -0.0000
 Octapole moment (field-independent basis, Debye-Ang**2):
  XXX=             -5.2271  YYY=              0.0320  ZZZ=             -0.5969  XYY=             -1.5181
  XXY=             -0.0001  XXZ=             -0.0000  XZZ=             -1.5180  YZZ=             -0.0318
  YYZ=              0.5969  XYZ=              0.0001
 Hexadecapole moment (field-independent basis, Debye-Ang**3):
 XXXX=            -64.7889 YYYY=            -16.3084 ZZZZ=            -16.3085 XXXY=              0.0002
 XXXZ=             -0.0003 YYYX=             -0.0240 YYYZ=              0.0001 ZZZX=              0.4519
 ZZZY=             -0.0000 XXYY=            -12.5044 XXZZ=            -12.5045 YYZZ=             -5.4362
 XXYZ=             -0.0001 YYXZ=             -0.4521 ZZXY=              0.0242
 N-N= 1.552771065852D+01 E-N=-1.250331642354D+02  KE= 4.059816710540D+01
                          Isotropic Fermi Contact Couplings
        Atom                 a.u.       MegaHertz       Gauss      10(-4) cm-1
     1  C(13)              0.09144     102.79338      36.67923      34.28818
     2  H(1)              -0.00141      -6.31562      -2.25357      -2.10666
     3  H(1)              -0.00141      -6.30994      -2.25154      -2.10477
     4  H(1)              -0.00141      -6.31209      -2.25231      -2.10549
     5  H(1)              -0.00982     -43.87898     -15.65711     -14.63645
     6  H(1)               0.28095    1255.80496     448.10242     418.89144
 --------------------------------------------------------
       Center         ----  Spin Dipole Couplings  ----
                      3XX-RR        3YY-RR        3ZZ-RR
 --------------------------------------------------------
     1   Atom        0.250195     -0.125098     -0.125098
     2   Atom        0.006153      0.004274     -0.010427
     3   Atom        0.006155      0.003419     -0.009574
     4   Atom        0.006153     -0.016922      0.010769
     5   Atom        0.148626     -0.074313     -0.074313
     6   Atom       -0.013597      0.006798      0.006798
 --------------------------------------------------------
                        XY            XZ            YZ
 --------------------------------------------------------
     1   Atom       -0.000030      0.000006      0.000000
     2   Atom       -0.009991     -0.005533      0.011744
     3   Atom        0.009788     -0.005886     -0.012236
     4   Atom        0.000201      0.011419      0.000491
     5   Atom        0.000000     -0.000001      0.000000
     6   Atom       -0.000001     -0.000001      0.000000
 --------------------------------------------------------


 ---------------------------------------------------------------------------------
              Anisotropic Spin Dipole Couplings in Principal Axis System
 ---------------------------------------------------------------------------------

       Atom             a.u.   MegaHertz   Gauss  10(-4) cm-1        Axes

              Baa    -0.1251   -16.787    -5.990    -5.600  0.0001  0.7983 -0.6023
     1 C(13)  Bbb    -0.1251   -16.787    -5.990    -5.599  0.0000  0.6023  0.7983
              Bcc     0.2502    33.574    11.980    11.199  1.0000 -0.0001  0.0000
 
              Baa    -0.0169    -9.034    -3.223    -3.013 -0.0000 -0.4845  0.8748
     2 H(1)   Bbb    -0.0032    -1.701    -0.607    -0.567  0.7741  0.5538  0.3067
              Bcc     0.0201    10.734     3.830     3.581 -0.6331  0.6772  0.3750
 
              Baa    -0.0169    -9.034    -3.223    -3.013  0.0000  0.5153  0.8570
     3 H(1)   Bbb    -0.0032    -1.701    -0.607    -0.567  0.7741 -0.5426  0.3262
              Bcc     0.0201    10.734     3.830     3.581  0.6331  0.6634 -0.3989
 
              Baa    -0.0169    -9.034    -3.223    -3.013  0.0001  0.9998 -0.0177
     4 H(1)   Bbb    -0.0032    -1.700    -0.607    -0.567  0.7741 -0.0113 -0.6330
              Bcc     0.0201    10.734     3.830     3.581  0.6331  0.0137  0.7740
 
              Baa    -0.0743   -39.650   -14.148   -13.226  0.0000 -0.5659  0.8245
     5 H(1)   Bbb    -0.0743   -39.650   -14.148   -13.226  0.0000  0.8245  0.5659
              Bcc     0.1486    79.300    28.296    26.452  1.0000  0.0000 -0.0000
 
              Baa    -0.0136    -7.254    -2.589    -2.420  1.0000  0.0001  0.0000
     6 H(1)   Bbb     0.0068     3.627     1.294     1.210 -0.0000  0.8610 -0.5086
              Bcc     0.0068     3.627     1.294     1.210 -0.0001  0.5086  0.8610
 

 ---------------------------------------------------------------------------------

 No NMR shielding tensors so no spin-rotation constants.
 Leave Link  601 at Fri Aug 23 16:08:45 2019, MaxMem=  2684354560 cpu:         3.1
 (Enter /soft/gaussian/09-e.01/g09/l9999.exe)
 1\1\GINC-BLUESLOGIN2\POpt\UB3LYP\6-31G(d)\C1H5(2)\ELLIOTT\23-Aug-2019\
 1\\#P b3lyp/6-31g* # SCF=(xqc) # POpt=() # int=ultrafine\\comment:\\0,
 2\C\H,1,R1\H,1,R2,2,A2\H,1,R3,2,A3,3,D3,0\H,1,R4,2,A4,3,D4,0\X,5,R5,1,
 A5,2,D5,0\H,5,R6,6,A6,1,D6,0\\R1=1.09275142\R2=1.09274887\A2=110.51041
 53\R3=1.09275927\A3=110.50712455\D3=122.63349187\R4=1.13033388\A4=108.
 41397232\D4=241.31179401\D6=179.99973001\A6=90.01095542\R5=1.\A5=90.\D
 5=180.\R6=1.311429\\Version=ES64L-G09RevE.01\State=2-A\HF=-41.0119354\
 S2=0.752606\S2-1=0.\S2A=0.750001\RMSD=2.737e-09\RMSF=3.096e-03\Dipole=
 0.0784288,-0.1433502,0.0543821\Quadrupole=0.1113892,-0.3180377,0.20664
 85,0.3352696,-0.1272444,0.2324848\PG=C01 [X(C1H5)]\\@


 LENDING MONEY TO FRIENDS CAUSES THEM TO LOSE THEIR MEMORIES.

    --  PETER'S THEORY OF RECIPROCAL INHIBITION OF FISCAL RECALL
 Job cpu time:       0 days  0 hours  1 minutes 50.2 seconds.
 File lengths (MBytes):  RWF=     72 Int=      0 D2E=      0 Chk=      2 Scr=      2
 Normal termination of Gaussian 09 at Fri Aug 23 16:08:45 2019.
