 Entering Gaussian System, Link 0=g09
 Input=run.inp
 Output=run.out
 Initial command:
 /soft/gaussian/09-e.01/g09/l1.exe "/blues/gpfs/home/elliott/Packages/PACC/moldriver/thermodriver/rundir/SPC/H2O2/MHAJPDPJQMAIIY/0/1/UHFFFAOYSA-N/ezvlpJR/RUN/HESS/A00/Gau-8349.inp" -scrdir="/blues/gpfs/home/elliott/Packages/PACC/moldriver/thermodriver/rundir/SPC/H2O2/MHAJPDPJQMAIIY/0/1/UHFFFAOYSA-N/ezvlpJR/RUN/HESS/A00/"
 Entering Link 1 = /soft/gaussian/09-e.01/g09/l1.exe PID=      8350.
  
 Copyright (c) 1988,1990,1992,1993,1995,1998,2003,2009,2015,
            Gaussian, Inc.  All Rights Reserved.
  
 This is part of the Gaussian(R) 09 program.  It is based on
 the Gaussian(R) 03 system (copyright 2003, Gaussian, Inc.),
 the Gaussian(R) 98 system (copyright 1998, Gaussian, Inc.),
 the Gaussian(R) 94 system (copyright 1995, Gaussian, Inc.),
 the Gaussian 92(TM) system (copyright 1992, Gaussian, Inc.),
 the Gaussian 90(TM) system (copyright 1990, Gaussian, Inc.),
 the Gaussian 88(TM) system (copyright 1988, Gaussian, Inc.),
 the Gaussian 86(TM) system (copyright 1986, Carnegie Mellon
 University), and the Gaussian 82(TM) system (copyright 1983,
 Carnegie Mellon University). Gaussian is a federally registered
 trademark of Gaussian, Inc.
  
 This software contains proprietary and confidential information,
 including trade secrets, belonging to Gaussian, Inc.
  
 This software is provided under written license and may be
 used, copied, transmitted, or stored only in accord with that
 written license.
  
 The following legend is applicable only to US Government
 contracts under FAR:
  
                    RESTRICTED RIGHTS LEGEND
  
 Use, reproduction and disclosure by the US Government is
 subject to restrictions as set forth in subparagraphs (a)
 and (c) of the Commercial Computer Software - Restricted
 Rights clause in FAR 52.227-19.
  
 Gaussian, Inc.
 340 Quinnipiac St., Bldg. 40, Wallingford CT 06492
  
  
 ---------------------------------------------------------------
 Warning -- This program may not be used in any manner that
 competes with the business of Gaussian, Inc. or will provide
 assistance to any competitor of Gaussian, Inc.  The licensee
 of this program is prohibited from giving any competitor of
 Gaussian, Inc. access to this program.  By using this program,
 the user acknowledges that Gaussian, Inc. is engaged in the
 business of creating and licensing software in the field of
 computational chemistry and represents and warrants to the
 licensee that it is not a competitor of Gaussian, Inc. and that
 it will not use this program in any manner prohibited above.
 ---------------------------------------------------------------
  

 Cite this work as:
 Gaussian 09, Revision E.01,
 M. J. Frisch, G. W. Trucks, H. B. Schlegel, G. E. Scuseria, 
 M. A. Robb, J. R. Cheeseman, G. Scalmani, V. Barone, B. Mennucci, 
 G. A. Petersson, H. Nakatsuji, M. Caricato, X. Li, H. P. Hratchian, 
 A. F. Izmaylov, J. Bloino, G. Zheng, J. L. Sonnenberg, M. Hada, 
 M. Ehara, K. Toyota, R. Fukuda, J. Hasegawa, M. Ishida, T. Nakajima, 
 Y. Honda, O. Kitao, H. Nakai, T. Vreven, J. A. Montgomery, Jr., 
 J. E. Peralta, F. Ogliaro, M. Bearpark, J. J. Heyd, E. Brothers, 
 K. N. Kudin, V. N. Staroverov, T. Keith, R. Kobayashi, J. Normand, 
 K. Raghavachari, A. Rendell, J. C. Burant, S. S. Iyengar, J. Tomasi, 
 M. Cossi, N. Rega, J. M. Millam, M. Klene, J. E. Knox, J. B. Cross, 
 V. Bakken, C. Adamo, J. Jaramillo, R. Gomperts, R. E. Stratmann, 
 O. Yazyev, A. J. Austin, R. Cammi, C. Pomelli, J. W. Ochterski, 
 R. L. Martin, K. Morokuma, V. G. Zakrzewski, G. A. Voth, 
 P. Salvador, J. J. Dannenberg, S. Dapprich, A. D. Daniels, 
 O. Farkas, J. B. Foresman, J. V. Ortiz, J. Cioslowski, 
 and D. J. Fox, Gaussian, Inc., Wallingford CT, 2013.
 
 ******************************************
 Gaussian 09:  ES64L-G09RevE.01 30-Nov-2015
                10-Sep-2019 
 ******************************************
 %mem=20GB
 %NProcShared=10
 Will use up to   10 processors via shared memory.
 -------------------------------------------------------------------
 #P b3lyp/6-31g* # SCF=(xqc) # Freq=() # IOp(7/33=1) # int=ultrafine
 -------------------------------------------------------------------
 1/10=4,30=1,38=1/1,3;
 2/12=2,17=6,18=5,40=1/2;
 3/5=1,6=6,7=1,11=2,16=1,25=1,30=1,71=2,74=-5,75=-5,140=1/1,2,3;
 4//1;
 5/5=2,8=3,13=1,38=5,98=1/2,8;
 8/6=4,10=90,11=11/1;
 11/6=1,8=1,9=11,15=111,16=1/1,2,10;
 10/6=1/2;
 6/7=2,8=2,9=2,10=2,18=1,28=1/1;
 7/8=1,10=1,25=1,33=1/1,2,3,16;
 1/10=4,30=1/3;
 99//99;
 Leave Link    1 at Tue Sep 10 12:24:59 2019, MaxMem=  2684354560 cpu:         0.8
 (Enter /soft/gaussian/09-e.01/g09/l101.exe)
 --------
 comment:
 --------
 Symbolic Z-matrix:
 Charge =  0 Multiplicity = 1
 O                     0.71849   0.11818  -0.05435 
 O                    -0.71849  -0.11818  -0.05435 
 H                     1.01342  -0.6703    0.43483 
 H                    -1.01342   0.6703    0.43483 
 
 NAtoms=      4 NQM=        4 NQMF=       0 NMMI=      0 NMMIF=      0
                NMic=       0 NMicF=      0.
                    Isotopes and Nuclear Properties:
 (Nuclear quadrupole moments (NQMom) in fm**2, nuclear magnetic moments (NMagM)
  in nuclear magnetons)

  Atom         1           2           3           4
 IAtWgt=          16          16           1           1
 AtmWgt=  15.9949146  15.9949146   1.0078250   1.0078250
 NucSpn=           0           0           1           1
 AtZEff=   0.0000000   0.0000000   0.0000000   0.0000000
 NQMom=    0.0000000   0.0000000   0.0000000   0.0000000
 NMagM=    0.0000000   0.0000000   2.7928460   2.7928460
 AtZNuc=   8.0000000   8.0000000   1.0000000   1.0000000
 Leave Link  101 at Tue Sep 10 12:24:59 2019, MaxMem=  2684354560 cpu:         0.7
 (Enter /soft/gaussian/09-e.01/g09/l103.exe)

 GradGradGradGradGradGradGradGradGradGradGradGradGradGradGradGradGradGrad
 Berny optimization.
 Initialization pass.
 Trust Radius=3.00D-01 FncErr=1.00D-07 GrdErr=1.00D-07
 Number of steps in this run=      2 maximum allowed number of steps=      2.
 GradGradGradGradGradGradGradGradGradGradGradGradGradGradGradGradGradGrad

 Leave Link  103 at Tue Sep 10 12:24:59 2019, MaxMem=  2684354560 cpu:         0.1
 (Enter /soft/gaussian/09-e.01/g09/l202.exe)
                          Input orientation:                          
 ---------------------------------------------------------------------
 Center     Atomic      Atomic             Coordinates (Angstroms)
 Number     Number       Type             X           Y           Z
 ---------------------------------------------------------------------
      1          8           0        0.718489    0.118182   -0.054354
      2          8           0       -0.718489   -0.118182   -0.054354
      3          1           0        1.013417   -0.670304    0.434834
      4          1           0       -1.013417    0.670304    0.434834
 ---------------------------------------------------------------------
                    Distance matrix (angstroms):
                    1          2          3          4
     1  O    0.000000
     2  O    1.456288   0.000000
     3  H    0.973652   1.882456   0.000000
     4  H    1.882456   0.973652   2.430079   0.000000
 Stoichiometry    H2O2
 Framework group  C2[X(H2O2)]
 Deg. of freedom     4
 Full point group                 C2      NOp   2
 Largest Abelian subgroup         C2      NOp   2
 Largest concise Abelian subgroup C2      NOp   2
                         Standard orientation:                         
 ---------------------------------------------------------------------
 Center     Atomic      Atomic             Coordinates (Angstroms)
 Number     Number       Type             X           Y           Z
 ---------------------------------------------------------------------
      1          8           0        0.000000    0.728144   -0.054354
      2          8           0       -0.000000   -0.728144   -0.054354
      3          1           0        0.825900    0.891185    0.434834
      4          1           0       -0.825900   -0.891185    0.434834
 ---------------------------------------------------------------------
 Rotational constants (GHZ):    297.0135120     26.4008377     25.3493778
 Leave Link  202 at Tue Sep 10 12:24:59 2019, MaxMem=  2684354560 cpu:         0.1
 (Enter /soft/gaussian/09-e.01/g09/l301.exe)
 Standard basis: 6-31G(d) (6D, 7F)
 Ernie: Thresh=  0.10000D-02 Tol=  0.10000D-05 Strict=F.
 There are    17 symmetry adapted cartesian basis functions of A   symmetry.
 There are    17 symmetry adapted cartesian basis functions of B   symmetry.
 There are    17 symmetry adapted basis functions of A   symmetry.
 There are    17 symmetry adapted basis functions of B   symmetry.
    34 basis functions,    64 primitive gaussians,    34 cartesian basis functions
     9 alpha electrons        9 beta electrons
       nuclear repulsion energy        36.6674218469 Hartrees.
 IExCor=  402 DFT=T Ex+Corr=B3LYP ExCW=0 ScaHFX=  0.200000
 ScaDFX=  0.800000  0.720000  1.000000  0.810000 ScalE2=  1.000000  1.000000
 IRadAn=      5 IRanWt=     -1 IRanGd=            0 ICorTp=0 IEmpDi=  4
 NAtoms=    4 NActive=    4 NUniq=    2 SFac= 4.00D+00 NAtFMM=   60 NAOKFM=F Big=F
 Integral buffers will be    131072 words long.
 Raffenetti 2 integral format.
 Two-electron integral symmetry is turned on.
 Leave Link  301 at Tue Sep 10 12:25:00 2019, MaxMem=  2684354560 cpu:         0.6
 (Enter /soft/gaussian/09-e.01/g09/l302.exe)
 NPDir=0 NMtPBC=     1 NCelOv=     1 NCel=       1 NClECP=     1 NCelD=      1
         NCelK=      1 NCelE2=     1 NClLst=     1 CellRange=     0.0.
 One-electron integrals computed using PRISM.
 One-electron integral symmetry used in STVInt
 NBasis=    34 RedAO= T EigKep=  8.01D-03  NBF=    17    17
 NBsUse=    34 1.00D-06 EigRej= -1.00D+00 NBFU=    17    17
 Precomputing XC quadrature grid using
 IXCGrd= 4 IRadAn=           5 IRanWt=          -1 IRanGd=           0 AccXCQ= 0.00D+00.
 Generated NRdTot=       0 NPtTot=           0 NUsed=           0 NTot=          32
 NSgBfM=    34    34    34    34    34 MxSgAt=     4 MxSgA2=     4.
 Leave Link  302 at Tue Sep 10 12:25:00 2019, MaxMem=  2684354560 cpu:         1.6
 (Enter /soft/gaussian/09-e.01/g09/l303.exe)
 DipDrv:  MaxL=1.
 Leave Link  303 at Tue Sep 10 12:25:00 2019, MaxMem=  2684354560 cpu:         0.2
 (Enter /soft/gaussian/09-e.01/g09/l401.exe)
 ExpMin= 1.61D-01 ExpMax= 5.48D+03 ExpMxC= 8.25D+02 IAcc=3 IRadAn=         5 AccDes= 0.00D+00
 Harris functional with IExCor=  402 and IRadAn=       5 diagonalized for initial guess.
 HarFok:  IExCor=  402 AccDes= 0.00D+00 IRadAn=         5 IDoV= 1 UseB2=F ITyADJ=14
 ICtDFT=  3500011 ScaDFX=  1.000000  1.000000  1.000000  1.000000
 FoFCou: FMM=F IPFlag=           0 FMFlag=      100000 FMFlg1=           0
         NFxFlg=           0 DoJE=T BraDBF=F KetDBF=T FulRan=T
         wScrn=  0.000000 ICntrl=     500 IOpCl=  0 I1Cent=   200000004 NGrid=           0
         NMat0=    1 NMatS0=      1 NMatT0=    0 NMatD0=    1 NMtDS0=    0 NMtDT0=    0
 Petite list used in FoFCou.
 Harris En= -151.553758386186    
 JPrj=0 DoOrth=F DoCkMO=F.
 Initial guess orbital symmetries:
       Occupied  (A) (B) (A) (B) (A) (B) (A) (A) (B)
       Virtual   (B) (A) (B) (B) (A) (B) (A) (A) (B) (A) (B) (A)
                 (B) (B) (A) (A) (B) (A) (A) (B) (B) (A) (B) (A)
                 (B)
 The electronic state of the initial guess is 1-A.
 Leave Link  401 at Tue Sep 10 12:25:00 2019, MaxMem=  2684354560 cpu:         1.6
 (Enter /soft/gaussian/09-e.01/g09/l502.exe)
 Closed shell SCF:
 Using DIIS extrapolation, IDIIS=  1040.
 Integral symmetry usage will be decided dynamically.
 Keep R1 ints in memory in symmetry-blocked form, NReq=1051434.
 IVT=       10058 IEndB=       10058 NGot=  2684354560 MDV=  2684254199
 LenX=  2684254199 LenY=  2684252602
 Requested convergence on RMS density matrix=1.00D-08 within  64 cycles.
 Requested convergence on MAX density matrix=1.00D-06.
 Requested convergence on             energy=1.00D-06.
 No special actions if energy rises.
 FoFCou: FMM=F IPFlag=           0 FMFlag=           0 FMFlg1=           0
         NFxFlg=           0 DoJE=F BraDBF=F KetDBF=F FulRan=T
         wScrn=  0.000000 ICntrl=     600 IOpCl=  0 I1Cent=           0 NGrid=           0
         NMat0=    1 NMatS0=    595 NMatT0=    0 NMatD0=    1 NMtDS0=    0 NMtDT0=    0
 Petite list used in FoFCou.
 Integral accuracy reduced to 1.0D-05 until final iterations.

 Cycle   1  Pass 0  IDiag  1:
 E= -151.498271689364    
 DIIS: error= 2.79D-02 at cycle   1 NSaved=   1.
 NSaved= 1 IEnMin= 1 EnMin= -151.498271689364     IErMin= 1 ErrMin= 2.79D-02
 ErrMax= 2.79D-02  0.00D+00 EMaxC= 1.00D-01 BMatC= 4.51D-02 BMatP= 4.51D-02
 IDIUse=3 WtCom= 7.21D-01 WtEn= 2.79D-01
 Coeff-Com:  0.100D+01
 Coeff-En:   0.100D+01
 Coeff:      0.100D+01
 Gap=     0.273 Goal=   None    Shift=    0.000
 GapD=    0.273 DampG=1.000 DampE=0.500 DampFc=0.5000 IDamp=-1.
 Damping current iteration by 5.00D-01
 RMSDP=9.59D-03 MaxDP=8.40D-02              OVMax= 9.55D-02

 Cycle   2  Pass 0  IDiag  1:
 E= -151.514677143680     Delta-E=       -0.016405454316 Rises=F Damp=T
 DIIS: error= 5.77D-03 at cycle   2 NSaved=   2.
 NSaved= 2 IEnMin= 2 EnMin= -151.514677143680     IErMin= 2 ErrMin= 5.77D-03
 ErrMax= 5.77D-03  0.00D+00 EMaxC= 1.00D-01 BMatC= 2.41D-03 BMatP= 4.51D-02
 IDIUse=3 WtCom= 9.42D-01 WtEn= 5.77D-02
 Coeff-Com:  0.332D-01 0.967D+00
 Coeff-En:   0.397D-01 0.960D+00
 Coeff:      0.336D-01 0.966D+00
 Gap=     0.306 Goal=   None    Shift=    0.000
 RMSDP=1.03D-03 MaxDP=6.66D-03 DE=-1.64D-02 OVMax= 4.60D-02

 Cycle   3  Pass 0  IDiag  1:
 E= -151.532917515239     Delta-E=       -0.018240371559 Rises=F Damp=F
 DIIS: error= 2.87D-03 at cycle   3 NSaved=   3.
 NSaved= 3 IEnMin= 3 EnMin= -151.532917515239     IErMin= 3 ErrMin= 2.87D-03
 ErrMax= 2.87D-03  0.00D+00 EMaxC= 1.00D-01 BMatC= 3.93D-04 BMatP= 2.41D-03
 IDIUse=3 WtCom= 9.71D-01 WtEn= 2.87D-02
 Coeff-Com: -0.180D-01 0.266D+00 0.752D+00
 Coeff-En:   0.000D+00 0.000D+00 0.100D+01
 Coeff:     -0.175D-01 0.259D+00 0.759D+00
 Gap=     0.294 Goal=   None    Shift=    0.000
 RMSDP=4.41D-04 MaxDP=2.55D-03 DE=-1.82D-02 OVMax= 5.68D-03

 Cycle   4  Pass 0  IDiag  1:
 E= -151.533200545679     Delta-E=       -0.000283030439 Rises=F Damp=F
 DIIS: error= 5.71D-04 at cycle   4 NSaved=   4.
 NSaved= 4 IEnMin= 4 EnMin= -151.533200545679     IErMin= 4 ErrMin= 5.71D-04
 ErrMax= 5.71D-04  0.00D+00 EMaxC= 1.00D-01 BMatC= 1.65D-05 BMatP= 3.93D-04
 IDIUse=3 WtCom= 9.94D-01 WtEn= 5.71D-03
 Coeff-Com:  0.107D-02 0.102D-02 0.167D+00 0.831D+00
 Coeff-En:   0.000D+00 0.000D+00 0.000D+00 0.100D+01
 Coeff:      0.107D-02 0.101D-02 0.166D+00 0.832D+00
 Gap=     0.294 Goal=   None    Shift=    0.000
 RMSDP=7.84D-05 MaxDP=4.26D-04 DE=-2.83D-04 OVMax= 9.55D-04

 Cycle   5  Pass 0  IDiag  1:
 E= -151.533212849186     Delta-E=       -0.000012303507 Rises=F Damp=F
 DIIS: error= 2.57D-05 at cycle   5 NSaved=   5.
 NSaved= 5 IEnMin= 5 EnMin= -151.533212849186     IErMin= 5 ErrMin= 2.57D-05
 ErrMax= 2.57D-05  0.00D+00 EMaxC= 1.00D-01 BMatC= 4.28D-08 BMatP= 1.65D-05
 IDIUse=1 WtCom= 1.00D+00 WtEn= 0.00D+00
 Coeff-Com:  0.440D-03-0.150D-02 0.318D-01 0.178D+00 0.792D+00
 Coeff:      0.440D-03-0.150D-02 0.318D-01 0.178D+00 0.792D+00
 Gap=     0.294 Goal=   None    Shift=    0.000
 RMSDP=4.58D-06 MaxDP=2.49D-05 DE=-1.23D-05 OVMax= 5.31D-05

 Initial convergence to 1.0D-05 achieved.  Increase integral accuracy.
 Cycle   6  Pass 1  IDiag  1:
 E= -151.533213443856     Delta-E=       -0.000000594671 Rises=F Damp=F
 DIIS: error= 3.55D-06 at cycle   1 NSaved=   1.
 NSaved= 1 IEnMin= 1 EnMin= -151.533213443856     IErMin= 1 ErrMin= 3.55D-06
 ErrMax= 3.55D-06  0.00D+00 EMaxC= 1.00D-01 BMatC= 7.30D-10 BMatP= 7.30D-10
 IDIUse=1 WtCom= 1.00D+00 WtEn= 0.00D+00
 Coeff-Com:  0.100D+01
 Coeff:      0.100D+01
 Gap=     0.294 Goal=   None    Shift=    0.000
 RMSDP=4.58D-06 MaxDP=2.49D-05 DE=-5.95D-07 OVMax= 1.45D-05

 Cycle   7  Pass 1  IDiag  1:
 E= -151.533213444252     Delta-E=       -0.000000000395 Rises=F Damp=F
 DIIS: error= 2.26D-06 at cycle   2 NSaved=   2.
 NSaved= 2 IEnMin= 2 EnMin= -151.533213444252     IErMin= 2 ErrMin= 2.26D-06
 ErrMax= 2.26D-06  0.00D+00 EMaxC= 1.00D-01 BMatC= 3.28D-10 BMatP= 7.30D-10
 IDIUse=1 WtCom= 1.00D+00 WtEn= 0.00D+00
 Coeff-Com:  0.386D+00 0.614D+00
 Coeff:      0.386D+00 0.614D+00
 Gap=     0.294 Goal=   None    Shift=    0.000
 RMSDP=4.97D-07 MaxDP=4.24D-06 DE=-3.95D-10 OVMax= 5.14D-06

 Cycle   8  Pass 1  IDiag  1:
 E= -151.533213444479     Delta-E=       -0.000000000227 Rises=F Damp=F
 DIIS: error= 8.47D-07 at cycle   3 NSaved=   3.
 NSaved= 3 IEnMin= 3 EnMin= -151.533213444479     IErMin= 3 ErrMin= 8.47D-07
 ErrMax= 8.47D-07  0.00D+00 EMaxC= 1.00D-01 BMatC= 3.35D-11 BMatP= 3.28D-10
 IDIUse=1 WtCom= 1.00D+00 WtEn= 0.00D+00
 Coeff-Com:  0.814D-01 0.267D+00 0.652D+00
 Coeff:      0.814D-01 0.267D+00 0.652D+00
 Gap=     0.294 Goal=   None    Shift=    0.000
 RMSDP=1.22D-07 MaxDP=1.20D-06 DE=-2.27D-10 OVMax= 1.11D-06

 Cycle   9  Pass 1  IDiag  1:
 E= -151.533213444503     Delta-E=       -0.000000000024 Rises=F Damp=F
 DIIS: error= 8.44D-08 at cycle   4 NSaved=   4.
 NSaved= 4 IEnMin= 4 EnMin= -151.533213444503     IErMin= 4 ErrMin= 8.44D-08
 ErrMax= 8.44D-08  0.00D+00 EMaxC= 1.00D-01 BMatC= 4.39D-13 BMatP= 3.35D-11
 IDIUse=1 WtCom= 1.00D+00 WtEn= 0.00D+00
 Coeff-Com: -0.981D-02 0.112D-01 0.121D+00 0.877D+00
 Coeff:     -0.981D-02 0.112D-01 0.121D+00 0.877D+00
 Gap=     0.294 Goal=   None    Shift=    0.000
 RMSDP=2.55D-08 MaxDP=1.10D-07 DE=-2.38D-11 OVMax= 4.32D-07

 Cycle  10  Pass 1  IDiag  1:
 E= -151.533213444504     Delta-E=       -0.000000000001 Rises=F Damp=F
 DIIS: error= 1.09D-08 at cycle   5 NSaved=   5.
 NSaved= 5 IEnMin= 5 EnMin= -151.533213444504     IErMin= 5 ErrMin= 1.09D-08
 ErrMax= 1.09D-08  0.00D+00 EMaxC= 1.00D-01 BMatC= 5.14D-15 BMatP= 4.39D-13
 IDIUse=1 WtCom= 1.00D+00 WtEn= 0.00D+00
 Coeff-Com: -0.129D-02-0.309D-02-0.292D-02 0.779D-01 0.929D+00
 Coeff:     -0.129D-02-0.309D-02-0.292D-02 0.779D-01 0.929D+00
 Gap=     0.294 Goal=   None    Shift=    0.000
 RMSDP=3.42D-09 MaxDP=2.09D-08 DE=-8.81D-13 OVMax= 6.35D-08

 SCF Done:  E(RB3LYP) =  -151.533213445     A.U. after   10 cycles
            NFock= 10  Conv=0.34D-08     -V/T= 2.0081
 KE= 1.503230339389D+02 PE=-4.315184556801D+02 EE= 9.299478644971D+01
 Leave Link  502 at Tue Sep 10 12:25:00 2019, MaxMem=  2684354560 cpu:         2.6
 (Enter /soft/gaussian/09-e.01/g09/l508.exe)
 QCSCF skips out because SCF is already converged.
 Leave Link  508 at Tue Sep 10 12:25:00 2019, MaxMem=  2684354560 cpu:         0.0
 (Enter /soft/gaussian/09-e.01/g09/l801.exe)
 DoSCS=F DFT=T ScalE2(SS,OS)=  1.000000  1.000000
 Range of M.O.s used for correlation:     1    34
 NBasis=    34 NAE=     9 NBE=     9 NFC=     0 NFV=     0
 NROrb=     34 NOA=     9 NOB=     9 NVA=    25 NVB=    25
 Leave Link  801 at Tue Sep 10 12:25:01 2019, MaxMem=  2684354560 cpu:         0.3
 (Enter /soft/gaussian/09-e.01/g09/l1101.exe)
 Using compressed storage, NAtomX=     4.
 Will process      5 centers per pass.
 Leave Link 1101 at Tue Sep 10 12:25:01 2019, MaxMem=  2684354560 cpu:         2.1
 (Enter /soft/gaussian/09-e.01/g09/l1102.exe)
 Symmetrizing basis deriv contribution to polar:
 IMax=3 JMax=2 DiffMx= 0.00D+00
 Leave Link 1102 at Tue Sep 10 12:25:01 2019, MaxMem=  2684354560 cpu:         0.7
 (Enter /soft/gaussian/09-e.01/g09/l1110.exe)
 Forming Gx(P) for the SCF density, NAtomX=     4.
 Integral derivatives from FoFJK, PRISM(SPDF).
 Do as many integral derivatives as possible in FoFJK.
 G2DrvN: MDV=    2684354424.
 G2DrvN: will do     5 centers at a time, making    1 passes.
 Calling FoFCou, ICntrl=  3107 FMM=F I1Cent=   0 AccDes= 0.00D+00.
 FoFJK:  IHMeth= 1 ICntrl=    3107 DoSepK=F KAlg= 0 I1Cent=   0 FoldK=F
 IRaf=         0 NMat=   1 IRICut=       1 DoRegI=T DoRafI=F ISym2E= 1.
 FoFCou: FMM=F IPFlag=           0 FMFlag=      100000 FMFlg1=           0
         NFxFlg=           0 DoJE=F BraDBF=F KetDBF=F FulRan=T
         wScrn=  0.000000 ICntrl=    3107 IOpCl=  0 I1Cent=           0 NGrid=           0
         NMat0=    1 NMatS0=      1 NMatT0=    0 NMatD0=    1 NMtDS0=    0 NMtDT0=    0
 Petite list used in FoFCou.
 End of G2Drv F.D. properties file   721 does not exist.
 End of G2Drv F.D. properties file   722 does not exist.
 End of G2Drv F.D. properties file   788 does not exist.
 Leave Link 1110 at Tue Sep 10 12:25:03 2019, MaxMem=  2684354560 cpu:         6.5
 (Enter /soft/gaussian/09-e.01/g09/l1002.exe)
 Minotr:  Closed shell wavefunction.
          IDoAtm=1111
          Direct CPHF calculation.
          Differentiating once with respect to electric field.
                with respect to dipole field.
          Differentiating once with respect to nuclear coordinates.
          Using symmetry in CPHF.
          Requested convergence is 1.0D-08 RMS, and 1.0D-07 maximum.
          Secondary convergence is 1.0D-12 RMS, and 1.0D-12 maximum.
          NewPWx=T KeepS1=F KeepF1=F KeepIn=T MapXYZ=F SortEE=F KeepMc=T.
          MDV=    2684354482 using IRadAn=       1.
 Generate precomputed XC quadrature information.
 Keep R1 ints in memory in symmetry-blocked form, NReq=1039761.
 FoFCou: FMM=F IPFlag=           0 FMFlag=           0 FMFlg1=           0
         NFxFlg=           0 DoJE=F BraDBF=F KetDBF=F FulRan=T
         wScrn=  0.000000 ICntrl=     600 IOpCl=  0 I1Cent=           0 NGrid=           0
         NMat0=    1 NMatS0=    595 NMatT0=    0 NMatD0=    1 NMtDS0=    0 NMtDT0=    0
 Petite list used in FoFCou.
          Solving linear equations simultaneously, MaxMat=       0.
          There are     9 degrees of freedom in the 1st order CPHF.  IDoFFX=4 NUNeed=     9.
      9 vectors produced by pass  0 Test12= 2.50D-15 1.11D-08 XBig12= 9.46D+00 2.04D+00.
 AX will form     9 AO Fock derivatives at one time.
      9 vectors produced by pass  1 Test12= 2.50D-15 1.11D-08 XBig12= 1.07D+00 2.94D-01.
      9 vectors produced by pass  2 Test12= 2.50D-15 1.11D-08 XBig12= 1.91D-02 3.99D-02.
      9 vectors produced by pass  3 Test12= 2.50D-15 1.11D-08 XBig12= 1.24D-04 4.62D-03.
      9 vectors produced by pass  4 Test12= 2.50D-15 1.11D-08 XBig12= 1.88D-07 1.03D-04.
      6 vectors produced by pass  5 Test12= 2.50D-15 1.11D-08 XBig12= 1.87D-10 4.05D-06.
      3 vectors produced by pass  6 Test12= 2.50D-15 1.11D-08 XBig12= 9.23D-14 7.03D-08.
 InvSVY:  IOpt=1 It=  1 EMax= 4.44D-16
 Solved reduced A of dimension    54 with     9 vectors.
 FullF1:  Do perturbations    1 to     9.
 Isotropic polarizability for W=    0.000000        9.84 Bohr**3.
 End of Minotr F.D. properties file   721 does not exist.
 End of Minotr F.D. properties file   722 does not exist.
 End of Minotr F.D. properties file   788 does not exist.
 Leave Link 1002 at Tue Sep 10 12:25:04 2019, MaxMem=  2684354560 cpu:        11.2
 (Enter /soft/gaussian/09-e.01/g09/l601.exe)
 Copying SCF densities to generalized density rwf, IOpCl= 0 IROHF=0.

 **********************************************************************

            Population analysis using the SCF density.

 **********************************************************************

 Orbital symmetries:
       Occupied  (A) (B) (A) (B) (A) (B) (A) (A) (B)
       Virtual   (B) (A) (B) (B) (A) (B) (A) (A) (B) (A) (B) (A)
                 (B) (B) (A) (A) (B) (A) (A) (B) (B) (A) (B) (A)
                 (B)
 The electronic state is 1-A.
 Alpha  occ. eigenvalues --  -19.20279 -19.20271  -1.11048  -0.89406  -0.52258
 Alpha  occ. eigenvalues --   -0.48882  -0.41165  -0.31818  -0.26932
 Alpha virt. eigenvalues --    0.02433   0.06905   0.11579   0.77729   0.78025
 Alpha virt. eigenvalues --    0.81222   0.83895   0.92154   0.95583   0.98372
 Alpha virt. eigenvalues --    1.04487   1.18805   1.31848   1.51007   1.51418
 Alpha virt. eigenvalues --    1.68707   1.80081   1.96634   2.29122   2.32881
 Alpha virt. eigenvalues --    2.46375   2.47621   2.94557   3.43012   3.65181
          Condensed to atoms (all electrons):
               1          2          3          4
     1  O    8.136343   0.081900   0.222382  -0.023177
     2  O    0.081900   8.136343  -0.023177   0.222382
     3  H    0.222382  -0.023177   0.382021   0.001326
     4  H   -0.023177   0.222382   0.001326   0.382021
 Mulliken charges:
               1
     1  O   -0.417448
     2  O   -0.417448
     3  H    0.417448
     4  H    0.417448
 Sum of Mulliken charges =   0.00000
 Mulliken charges with hydrogens summed into heavy atoms:
               1
     1  O    0.000000
     2  O    0.000000
 APT charges:
               1
     1  O   -0.243420
     2  O   -0.243420
     3  H    0.243420
     4  H    0.243420
 Sum of APT charges =   0.00000
 APT charges with hydrogens summed into heavy atoms:
               1
     1  O   -0.000000
     2  O    0.000000
 Electronic spatial extent (au):  <R**2>=             66.0024
 Charge=             -0.0000 electrons
 Dipole moment (field-independent basis, Debye):
    X=              0.0000    Y=              0.0000    Z=              1.7792  Tot=              1.7792
 Quadrupole moment (field-independent basis, Debye-Ang):
   XX=             -9.1584   YY=            -11.0914   ZZ=            -11.5540
   XY=              3.0120   XZ=              0.0000   YZ=              0.0000
 Traceless Quadrupole moment (field-independent basis, Debye-Ang):
   XX=              1.4429   YY=             -0.4901   ZZ=             -0.9527
   XY=              3.0120   XZ=              0.0000   YZ=              0.0000
 Octapole moment (field-independent basis, Debye-Ang**2):
  XXX=              0.0000  YYY=             -0.0000  ZZZ=              1.0669  XYY=              0.0000
  XXY=              0.0000  XXZ=              1.3563  XZZ=              0.0000  YZZ=              0.0000
  YYZ=              1.8057  XYZ=              1.5500
 Hexadecapole moment (field-independent basis, Debye-Ang**3):
 XXXX=             -9.4724 YYYY=            -43.2010 ZZZZ=             -9.5555 XXXY=              0.2522
 XXXZ=             -0.0000 YYYX=              0.9441 YYYZ=              0.0000 ZZZX=              0.0000
 ZZZY=             -0.0000 XXYY=             -7.8582 XXZZ=             -2.9564 YYZZ=             -9.3760
 XXYZ=              0.0000 YYXZ=              0.0000 ZZXY=             -0.0667
 N-N= 3.666742184692D+01 E-N=-4.315184558289D+02  KE= 1.503230339389D+02
 Symmetry A    KE= 7.696866291480D+01
 Symmetry B    KE= 7.335437102413D+01
  Exact polarizability:   9.473   2.316  13.835   0.000   0.000   6.213
 Approx polarizability:  12.032   2.057  20.637  -0.000  -0.000   7.707
 No NMR shielding tensors so no spin-rotation constants.
 Leave Link  601 at Tue Sep 10 12:25:04 2019, MaxMem=  2684354560 cpu:         1.6
 (Enter /soft/gaussian/09-e.01/g09/l701.exe)
 Compute integral second derivatives.
 ... and contract with generalized density number  0.
 Entering OneElI...
 Calculate overlap and kinetic energy integrals
    NBasis =  34  MinDer = 2  MaxDer = 2
 Requested accuracy = 0.1000D-12
 PrsmSu:  NPrtUS=  10 ThrOK=T IAlg=1 NPAlg=1 LenDen=           0.
 Prism:   IPart=     0 DynPar=F LinDyn=F Incr=           1.
 PRISM was handed   268429756 working-precision words and    78 shell-pairs
 PRISM was handed   268429756 working-precision words and    78 shell-pairs
 PRISM was handed   268429756 working-precision words and    78 shell-pairs
 PRISM was handed   268429756 working-precision words and    78 shell-pairs
 PRISM was handed   268429756 working-precision words and    78 shell-pairs
 PRISM was handed   268429756 working-precision words and    78 shell-pairs
 PRISM was handed   268429756 working-precision words and    78 shell-pairs
 PRISM was handed   268429756 working-precision words and    78 shell-pairs
 PRISM was handed   268429756 working-precision words and    78 shell-pairs
 PRISM was handed   268429756 working-precision words and    78 shell-pairs
 IPart=  7 NShTot=           1 NBatch=           1 AvBLen=         1.0
 IPart=  4 NShTot=           1 NBatch=           1 AvBLen=         1.0
 IPart=  5 NShTot=           1 NBatch=           1 AvBLen=         1.0
 IPart=  6 NShTot=           1 NBatch=           1 AvBLen=         1.0
 IPart=  2 NShTot=          15 NBatch=          15 AvBLen=         1.0
 IPart=  9 NShTot=           0 NBatch=           0 AvBLen=         0.0
 IPart=  1 NShTot=          23 NBatch=          23 AvBLen=         1.0
 IPart=  0 NShTot=          25 NBatch=          25 AvBLen=         1.0
 IPart=  3 NShTot=          11 NBatch=          11 AvBLen=         1.0
 IPart=  8 NShTot=           0 NBatch=           0 AvBLen=         0.0
 PrSmSu:  NxtVal=             11.
 Entering OneElI...
 Calculate potential energy integrals
    NBasis =  34  MinDer = 2  MaxDer = 2
 Requested accuracy = 0.1000D-12
 PrsmSu:  NPrtUS=  10 ThrOK=T IAlg=1 NPAlg=1 LenDen=           0.
 Prism:   IPart=     0 DynPar=F LinDyn=F Incr=           1.
 PRISM was handed   268430136 working-precision words and    78 shell-pairs
 PRISM was handed   268430136 working-precision words and    78 shell-pairs
 PRISM was handed   268430136 working-precision words and    78 shell-pairs
 PRISM was handed   268430136 working-precision words and    78 shell-pairs
 PRISM was handed   268430136 working-precision words and    78 shell-pairs
 PRISM was handed   268430136 working-precision words and    78 shell-pairs
 PRISM was handed   268430136 working-precision words and    78 shell-pairs
 PRISM was handed   268430136 working-precision words and    78 shell-pairs
 PRISM was handed   268430136 working-precision words and    78 shell-pairs
 PRISM was handed   268430136 working-precision words and    78 shell-pairs
 IPart=  4 NShTot=           4 NBatch=           1 AvBLen=         4.0
 IPart=  2 NShTot=          60 NBatch=          15 AvBLen=         4.0
 IPart=  0 NShTot=          96 NBatch=          24 AvBLen=         4.0
 IPart=  7 NShTot=           4 NBatch=           1 AvBLen=         4.0
 IPart=  5 NShTot=           4 NBatch=           1 AvBLen=         4.0
 IPart=  1 NShTot=          88 NBatch=          22 AvBLen=         4.0
 IPart=  6 NShTot=           4 NBatch=           1 AvBLen=         4.0
 IPart=  8 NShTot=           0 NBatch=           0 AvBLen=         0.0
 IPart=  9 NShTot=           0 NBatch=           0 AvBLen=         0.0
 IPart=  3 NShTot=          52 NBatch=          13 AvBLen=         4.0
 PrSmSu:  NxtVal=             11.
 Polarizability after L701:
                1             2             3 
      1  0.947268D+01
      2  0.231628D+01  0.138352D+02
      3  0.000000D+00  0.000000D+00  0.621311D+01
 Dipole Derivatives after L701:
                 1             2             3             4             5 
      1  -0.189884D+00 -0.708866D-03  0.137287D+00 -0.189884D+00 -0.708868D-03
      2  -0.182311D-01 -0.242250D+00 -0.104826D+00 -0.182311D-01 -0.242250D+00
      3   0.143052D+00  0.949356D-02 -0.298126D+00 -0.143052D+00 -0.949356D-02
                 6             7             8             9            10 
      1  -0.137287D+00  0.189884D+00  0.708869D-03 -0.111782D+00  0.189884D+00
      2   0.104826D+00  0.182311D-01  0.242250D+00  0.107986D-01  0.182311D-01
      3  -0.298126D+00 -0.113806D+00  0.332098D-02  0.298126D+00  0.113806D+00
                11            12 
      1   0.708867D-03  0.111782D+00
      2   0.242250D+00 -0.107986D-01
      3  -0.332098D-02  0.298126D+00
 Hessian after L701:
                1             2             3             4             5 
      1  0.563102D+01
      2 -0.686794D+00 -0.617471D+00
      3 -0.931716D+00 -0.247346D+00  0.653599D+01
      4 -0.462829D+01  0.582886D-01  0.119118D-01  0.563102D+01
      5  0.582886D-01  0.349733D+01 -0.339296D-01 -0.686794D+00 -0.617471D+00
      6 -0.119118D-01  0.339296D-01 -0.427687D+01  0.931716D+00  0.247346D+00
      7 -0.111064D+01  0.523865D+00  0.103196D+01  0.107918D+00  0.104641D+00
      8  0.613011D+00 -0.284217D+01  0.350866D+00  0.154948D-01 -0.376859D-01
      9  0.103538D+01  0.310104D+00 -0.232641D+01  0.917560D-01  0.966874D-01
     10  0.107918D+00  0.104641D+00 -0.112151D+00 -0.111064D+01  0.523865D+00
     11  0.154948D-01 -0.376859D-01 -0.695900D-01  0.613011D+00 -0.284217D+01
     12 -0.917560D-01 -0.966874D-01  0.672865D-01 -0.103538D+01 -0.310104D+00
                6             7             8             9            10 
      6  0.653599D+01
      7  0.112151D+00  0.978708D+00
      8  0.695900D-01 -0.651294D+00  0.287396D+01
      9  0.672865D-01 -0.113562D+01 -0.413624D+00  0.226782D+01
     10 -0.103196D+01  0.240144D-01  0.227884D-01  0.848347D-02  0.978708D+00
     11 -0.350866D+00  0.227884D-01  0.590098D-02  0.683221D-02 -0.651294D+00
     12 -0.232641D+01 -0.848347D-02 -0.683221D-02 -0.869370D-02  0.113562D+01
               11            12 
     11  0.287396D+01
     12  0.413624D+00  0.226782D+01
 Leave Link  701 at Tue Sep 10 12:25:05 2019, MaxMem=  2684354560 cpu:         1.8
 (Enter /soft/gaussian/09-e.01/g09/l702.exe)
 L702 exits ... SP integral derivatives will be done elsewhere.
 Leave Link  702 at Tue Sep 10 12:25:05 2019, MaxMem=  2684354560 cpu:         0.1
 (Enter /soft/gaussian/09-e.01/g09/l703.exe)
 Compute integral second derivatives, UseDBF=F ICtDFT=           0.
 Integral derivatives from FoFJK, PRISM(SPDF).
 ICntrl=    100127.
 Calling FoFJK, ICntrl=    100127 FMM=F ISym2X=1 I1Cent= 0 IOpClX= 0 NMat=1 NMatS=1 NMatT=0.
 FoFJK:  IHMeth= 1 ICntrl=  100127 DoSepK=F KAlg= 0 I1Cent=   0 FoldK=F
 IRaf=         0 NMat=   1 IRICut=       1 DoRegI=T DoRafI=F ISym2E= 1.
 FoFCou: FMM=F IPFlag=           0 FMFlag=      100000 FMFlg1=         800
         NFxFlg=           0 DoJE=F BraDBF=F KetDBF=F FulRan=T
         wScrn=  0.000000 ICntrl=  100127 IOpCl=  0 I1Cent=           0 NGrid=           0
         NMat0=    1 NMatS0=      1 NMatT0=    0 NMatD0=    1 NMtDS0=    0 NMtDT0=    0
 Petite list used in FoFCou.
 FoFCou:  KetSym=F NOpSet=  2 NOpAb=2 NOp=  2.
 FoFCou:  CnvScl= 1.00D+00 Thresh= 1.00D-10 IAcrcy=      10.
 PrismS was handed  2684341063 working-precision words and    78 shell-pairs
 FoFCou: LinMIO=F DoNuc=F BraDBF=F KetDBF=F HaveP=T PDBF=F HaveZ=T HaveW=F
         NIJTC =       6 NIJTAt=       0 NIJTCD=       0 NIJTT =       6
         IJTBeg=       1 IJTEnd=       6 KLTBeg=       1 KLTEnd=       6
         IPTBeg=       1 IPTEnd=       6 IPTBCv=       1 IPTECv=       6
         IZTBeg=       1 IZTEnd=       6 IZTBCv=       1 IZTECv=       6
         IWTBeg=       7 IWTEnd=       6 IWTBCv=       7 IWTECv=       6
         INTBeg=       1 INTEnd=       0 IFTBCv=       1 IFTECv=       6
 NCel replicated for PrismC:     1
 CoulSu:  IncDef=  1024 NBBP=           3081 NTPThr=   100 NPartT=   10 Incr=           3 LDynOK=F.
 CoulSu:  NPrtUS=  10 ThrOK=T IAlg=1 NPAlg=1 LenDen=           0 LWGrdD=           0 DoCopy=F.
 Enter PrismC: JobTyp=22 DoJE=F Cont=F.
 PrismC:  IPart=     0 DynPar=F LinDyn=F Incr=           3 UseFst=F UseS4=T IGathr=2.
 PrismC was handed   268429991 working-precision words and    78 shell-pairs
 Enter PrismC: JobTyp=22 DoJE=F Cont=F.
 PrismC was handed   268429991 working-precision words and    78 shell-pairs
 Enter PrismC: JobTyp=22 DoJE=F Cont=F.
 PrismC was handed   268429991 working-precision words and    78 shell-pairs
 Enter PrismC: JobTyp=22 DoJE=F Cont=F.
 Enter PrismC: JobTyp=22 DoJE=F Cont=F.
 PrismC was handed   268429991 working-precision words and    78 shell-pairs
 Enter PrismC: JobTyp=22 DoJE=F Cont=F.
 PrismC was handed   268429991 working-precision words and    78 shell-pairs
 PrismC was handed   268429991 working-precision words and    78 shell-pairs
 Enter PrismC: JobTyp=22 DoJE=F Cont=F.
 PrismC was handed   268429991 working-precision words and    78 shell-pairs
 Enter PrismC: JobTyp=22 DoJE=F Cont=F.
 PrismC was handed   268429991 working-precision words and    78 shell-pairs
 Enter PrismC: JobTyp=22 DoJE=F Cont=F.
 Enter PrismC: JobTyp=22 DoJE=F Cont=F.
 PrismC was handed   268429991 working-precision words and    78 shell-pairs
 PrismC was handed   268429991 working-precision words and    78 shell-pairs
 IPart=  7 NShTot=          96 NShNF=          96 NShFF=           0 NBatch=          94 AvBLen=         1.0
 IPart=  5 NShTot=         125 NShNF=         125 NShFF=           0 NBatch=         115 AvBLen=         1.1
 IPart=  0 NShTot=         251 NShNF=         251 NShFF=           0 NBatch=         238 AvBLen=         1.1
 IPart=  1 NShTot=         293 NShNF=         293 NShFF=           0 NBatch=         279 AvBLen=         1.1
 IPart=  9 NShTot=          28 NShNF=          28 NShFF=           0 NBatch=          25 AvBLen=         1.1
 IPart=  8 NShTot=          30 NShNF=          30 NShFF=           0 NBatch=          27 AvBLen=         1.1
 IPart=  6 NShTot=          95 NShNF=          95 NShFF=           0 NBatch=          93 AvBLen=         1.0
 IPart=  4 NShTot=         134 NShNF=         134 NShFF=           0 NBatch=         124 AvBLen=         1.1
 IPart=  2 NShTot=         246 NShNF=         246 NShFF=           0 NBatch=         233 AvBLen=         1.1
 IPart=  3 NShTot=         229 NShNF=         229 NShFF=           0 NBatch=         217 AvBLen=         1.1
 CoulSu:  NxtVal=             31.
 ReadGW:  IGet=0 IStart=           1 Next=           1 LGW=           0.
 Remaining memory in FofDFT     2560.00 Mw
 CkSvGd:  ISavGI=        -1 IRadAn=       5 IRASav=       5 ISavGd=        -1.
 CalDSu:  NPrtUS=  10 ThrOK=T IAlg=1 NPAlg=2 DoDPD=T LenP=         595 LenD1P=             0.
 IPart=  0 IRanGd=          0 ScrnBf=T ScrnGd=T RCrit=4.00D+00 DoMicB=T.
 IPart=  8         3851 of         4172 points in       5 batches and       31 microbatches, Max-NSigAt=       4 Max-NSgAt2=       4
 IPart=  2         4232 of         4306 points in       3 batches and       17 microbatches, Max-NSigAt=       4 Max-NSgAt2=       4
 IPart=  0         4559 of         4796 points in       4 batches and       43 microbatches, Max-NSigAt=       4 Max-NSgAt2=       4
 IPart=  5         3908 of         4158 points in       5 batches and       39 microbatches, Max-NSigAt=       4 Max-NSgAt2=       4
 IPart=  6         3388 of         3568 points in       4 batches and       35 microbatches, Max-NSigAt=       4 Max-NSgAt2=       4
 IPart=  4         3732 of         3940 points in       4 batches and       37 microbatches, Max-NSigAt=       4 Max-NSgAt2=       4
 IPart=  7         4587 of         4720 points in       4 batches and       16 microbatches, Max-NSigAt=       4 Max-NSgAt2=       4
 IPart=  1         4901 of         5078 points in       4 batches and       15 microbatches, Max-NSigAt=       4 Max-NSgAt2=       4
 IPart=  3         4135 of         4200 points in       3 batches and       14 microbatches, Max-NSigAt=       4 Max-NSgAt2=       4
 IPart=  9         4546 of         4622 points in       3 batches and       13 microbatches, Max-NSigAt=       4 Max-NSgAt2=       4
 Polarizability after L703:
                1             2             3 
      1  0.947268D+01
      2  0.231628D+01  0.138352D+02
      3  0.000000D+00  0.000000D+00  0.621311D+01
 Dipole Derivatives after L703:
                 1             2             3             4             5 
      1  -0.189884D+00 -0.708866D-03  0.137287D+00 -0.189884D+00 -0.708868D-03
      2  -0.182311D-01 -0.242250D+00 -0.104826D+00 -0.182311D-01 -0.242250D+00
      3   0.143052D+00  0.949356D-02 -0.298126D+00 -0.143052D+00 -0.949356D-02
                 6             7             8             9            10 
      1  -0.137287D+00  0.189884D+00  0.708869D-03 -0.111782D+00  0.189884D+00
      2   0.104826D+00  0.182311D-01  0.242250D+00  0.107986D-01  0.182311D-01
      3  -0.298126D+00 -0.113806D+00  0.332098D-02  0.298126D+00  0.113806D+00
                11            12 
      1   0.708867D-03  0.111782D+00
      2   0.242250D+00 -0.107986D-01
      3  -0.332098D-02  0.298126D+00
 Hessian after L703:
                1             2             3             4             5 
      1  0.419718D+00
      2  0.715343D-01  0.319906D+00
      3  0.221020D+00  0.147356D-01  0.145585D+00
      4 -0.625564D-01 -0.133019D-01 -0.122500D-02  0.419718D+00
      5 -0.133019D-01 -0.247540D+00 -0.211450D-01  0.715343D-01  0.319906D+00
      6  0.122500D-02  0.211450D-01 -0.182948D-01 -0.221020D+00 -0.147356D-01
      7 -0.364290D+00 -0.679423D-01 -0.213944D+00  0.712800D-02  0.970991D-02
      8 -0.169873D-01 -0.406938D-01 -0.110969D-01 -0.412451D-01 -0.316726D-01
      9 -0.216899D+00 -0.351887D-01 -0.128759D+00  0.534535D-02  0.691876D-03
     10  0.712800D-02  0.970991D-02 -0.585043D-02 -0.364290D+00 -0.679423D-01
     11 -0.412451D-01 -0.316726D-01  0.175063D-01 -0.169873D-01 -0.406938D-01
     12 -0.534535D-02 -0.691876D-03  0.146835D-02  0.216899D+00  0.351887D-01
                6             7             8             9            10 
      6  0.145585D+00
      7  0.585043D-02  0.357931D+00
      8 -0.175063D-01  0.589286D-01  0.790395D-01
      9  0.146835D-02  0.209824D+00  0.315501D-01  0.126298D+00
     10  0.213944D+00 -0.768864D-03 -0.696235D-03  0.173008D-02  0.357931D+00
     11  0.110969D-01 -0.696235D-03 -0.667309D-02  0.294680D-02  0.589286D-01
     12 -0.128759D+00 -0.173008D-02 -0.294680D-02  0.991805D-03 -0.209824D+00
               11            12 
     11  0.790395D-01
     12 -0.315501D-01  0.126298D+00
 Leave Link  703 at Tue Sep 10 12:25:05 2019, MaxMem=  2684354560 cpu:         5.2
 (Enter /soft/gaussian/09-e.01/g09/l716.exe)
 FrcOut:
 IF    =    33 IFX   =    45 IFXYZ =    57
 IFFX  =    69 IFFFX =   147 IFLen =    12
 IFFLen=    78 IFFFLn=     0 IEDerv=   147
 LEDerv=   629 IFroze=   934 ICStrt=  3367
 Dipole        = 5.13478149D-16-6.66133815D-16 6.99997053D-01
 DipoleDeriv   =-1.89884468D-01-1.82311084D-02 1.43052337D-01
                -7.08865750D-04-2.42249926D-01 9.49356367D-03
                 1.37287454D-01-1.04825860D-01-2.98126270D-01
                -1.89884468D-01-1.82311118D-02-1.43052327D-01
                -7.08868260D-04-2.42249914D-01-9.49356092D-03
                -1.37287457D-01 1.04825866D-01-2.98126288D-01
                 1.89884470D-01 1.82311127D-02-1.13805957D-01
                 7.08868601D-04 2.42249918D-01 3.32097636D-03
                -1.11781943D-01 1.07985514D-02 2.98126275D-01
                 1.89884470D-01 1.82311121D-02 1.13805947D-01
                 7.08866894D-04 2.42249922D-01-3.32097911D-03
                 1.11781946D-01-1.07985576D-02 2.98126289D-01
 Polarizability= 9.47267637D+00 2.31628175D+00 1.38352076D+01
                 1.43371343D-08 1.48431691D-08 6.21311352D+00
 VibFq2-Diag1:  N=     12 IV=           5 MDV=  2684350445 NE2=   223695870
 Full mass-weighted force constant matrix:
 Low frequencies ---  -11.5649   -0.0010   -0.0003    0.0015   13.2081   21.1173
 Low frequencies ---  348.8396  956.4773 1330.8789
 OrtVCM:  Ph=1 IPass= 1 DotMx1= 0.00D+00
 OrtVCM:  IS=    1 I=    1 IndO=    1 Dot= 1.00D+00 DotN= 1.00D+00 ElMax1= 6.86D-01 ElMax1N= 6.86D-01
 OrtVCM:  Ph=2 NNew=    0 IAdd=    2 IPass= 1 DotMx2= 0.00D+00
 OrtVCM:  IS=    1 I=    2 IndO=    2 Dot= 1.00D+00 DotN= 1.00D+00 ElMax1= 6.86D-01 ElMax1N= 6.86D-01
 OrtVCM:  Ph=2 NNew=    0 IAdd=    3 IPass= 1 DotMx2= 0.00D+00
 OrtVCM:  IS=    1 I=    3 IndO=    3 Dot= 1.00D+00 DotN= 1.00D+00 ElMax1= 6.86D-01 ElMax1N= 6.86D-01
 OrtVCM:  Ph=2 NNew=    0 IAdd=    4 IPass= 1 DotMx2= 1.39D-17
 OrtVCM:  IS=    1 I=    4 IndO=    4 Dot= 1.00D+00 DotN= 1.00D+00 ElMax1= 5.75D-01 ElMax1N= 5.75D-01
 OrtVCM:  Ph=2 NNew=    0 IAdd=    5 IPass= 1 DotMx2= 1.11D-15
 OrtVCM:  IS=    1 I=    5 IndO=    5 Dot= 1.00D+00 DotN= 1.00D+00 ElMax1= 6.63D-01 ElMax1N= 6.63D-01
 OrtVCM:  Ph=2 NNew=    0 IAdd=    6 IPass= 1 DotMx2= 8.67D-18
 OrtVCM:  IS=    1 I=    6 IndO=    6 Dot= 1.00D+00 DotN= 1.00D+00 ElMax1= 6.52D-01 ElMax1N= 6.52D-01
 OrtVCM:  Ph=1 IPass= 1 DotMx1= 6.86D-01
 OrtVCM:  Ph=1 IPass= 2 DotMx1= 1.18D-16
 OrtVCM:  IS=    1 I=    1 IndO=    7 Dot= 9.64D-02 DotN= 9.64D-02 ElMax1= 2.17D-01 ElMax1N= 2.17D-01
 OrtVCM:  Ph=2 NNew=    0 IAdd=    2 IPass= 1 DotMx2= 1.97D-03
 OrtVCM:  Ph=2 NNew=    0 IAdd=    2 IPass= 2 DotMx2= 1.20D-17
 OrtVCM:  IS=    1 I=    2 IndO=    8 Dot= 5.29D-01 DotN= 5.29D-01 ElMax1= 5.29D-01 ElMax1N= 5.29D-01
 OrtVCM:  Ph=2 NNew=    0 IAdd=    3 IPass= 1 DotMx2= 4.95D-02
 OrtVCM:  Ph=2 NNew=    0 IAdd=    3 IPass= 2 DotMx2= 1.34D-17
 OrtVCM:  IS=    1 I=    3 IndO=    9 Dot= 5.04D-02 DotN= 5.04D-02 ElMax1= 1.46D-01 ElMax1N= 1.46D-01
 OrtVCM:  Ph=2 NNew=    0 IAdd=    4 IPass= 1 DotMx2= 1.70D-01
 OrtVCM:  Ph=2 NNew=    0 IAdd=    4 IPass= 2 DotMx2= 2.78D-17
 OrtVCM:  IS=    1 I=    4 IndO=   10 Dot= 5.62D-02 DotN= 5.62D-02 ElMax1= 1.61D-01 ElMax1N= 1.61D-01
 OrtVCM:  Ph=2 NNew=    0 IAdd=    5 IPass= 1 DotMx2= 6.48D-01
 OrtVCM:  Ph=2 NNew=    0 IAdd=    5 IPass= 2 DotMx2= 1.26D-16
 OrtVCM:  IS=    1 I=    5 IndO=   11 Dot= 7.71D-02 DotN= 7.71D-02 ElMax1= 1.54D-01 ElMax1N= 1.54D-01
 OrtVCM:  Ph=2 NNew=    0 IAdd=    6 IPass= 1 DotMx2= 1.87D-01
 OrtVCM:  Ph=2 NNew=    0 IAdd=    6 IPass= 2 DotMx2= 1.45D-17
 OrtVCM:  IS=    1 I=    6 IndO=    0 Dot= 1.53D-33 DotN= 1.53D-33 ElMax1= 2.26D-17 ElMax1N= 2.26D-17
 SchOr2:  IPass= 1 Test2A= 1.00D-01 IOff=     0 NDo=     6 NNew=     5
 OrtVCM:  Ph=1 IPass= 1 DotMx1= 7.00D-01
 OrtVCM:  Ph=1 IPass= 2 DotMx1= 1.53D-16
 OrtVCM:  IS=    1 I=    1 IndO=   12 Dot= 2.31D-01 DotN= 2.31D-01 ElMax1= 2.49D-01 ElMax1N= 2.49D-01
 SchOr2:  IPass= 1 Test2A= 1.00D-01 IOff=     6 NDo=     1 NNew=     1
 VibFq2-Diag2:  N=      6 IV=           5 MDV=  2684350445 NE2=   447391740
 Dipole derivative wrt mode   1:  6.96915D-08 -1.22416D-07  1.42476D+01
 Vibrational polarizability contributions from mode   1       0.0000000       0.0000000      44.8915181
 Dipole derivative wrt mode   2:  2.01410D-08 -8.05470D-08  1.28331D+00
 Vibrational polarizability contributions from mode   2       0.0000000       0.0000000       0.0484447
 Dipole derivative wrt mode   3: -3.59388D-01  1.03751D+01  1.87506D-09
 Vibrational polarizability contributions from mode   3       0.0019624       1.6354589       0.0000000
 Dipole derivative wrt mode   4:  2.78720D-08 -6.46536D-08 -6.63788D-01
 Vibrational polarizability contributions from mode   4       0.0000000       0.0000000       0.0054871
 Dipole derivative wrt mode   5:  8.06841D-09 -8.83188D-08  2.29886D+00
 Vibrational polarizability contributions from mode   5       0.0000000       0.0000000       0.0103533
 Dipole derivative wrt mode   6:  4.73301D+00  2.78984D+00 -3.42837D-07
 Vibrational polarizability contributions from mode   6       0.0438235       0.0152262       0.0000000
 Diagonal vibrational polarizability:
        0.0457859       1.6506850      44.9558033
 NorSel:  MapVib=      1      2      3      4      5      6
 Harmonic frequencies (cm**-1), IR intensities (KM/Mole), Raman scattering
 activities (A**4/AMU), depolarization ratios for plane and unpolarized
 incident light, reduced masses (AMU), force constants (mDyne/A),
 and normal coordinates:
                      1                      2                      3
                      A                      A                      B
 Frequencies --    348.8394               956.4773              1330.8789
 Red. masses --      1.0829                14.4006                 1.0999
 Frc consts  --      0.0776                 7.7621                 1.1479
 IR Inten    --    202.9935                 1.6469               107.7716
  Atom  AN      X      Y      Z        X      Y      Z        X      Y      Z
     1   8     0.03  -0.01  -0.04    -0.00   0.67  -0.01     0.01  -0.04   0.03
     2   8    -0.03   0.01  -0.04     0.00  -0.67  -0.01     0.01  -0.04  -0.03
     3   1    -0.36   0.02   0.61     0.01  -0.02   0.23    -0.08   0.70  -0.05
     4   1     0.36  -0.02   0.61    -0.01   0.02   0.23    -0.08   0.70   0.05
                      4                      5                      6
                      A                      A                      B
 Frequencies --   1470.0182              3706.2857              3708.9437
 Red. masses --      1.0892                 1.0702                 1.0676
 Frc consts  --      1.3867                 8.6617                 8.6526
 IR Inten    --      0.4406                 5.2848                30.1846
  Atom  AN      X      Y      Z        X      Y      Z        X      Y      Z
     1   8     0.05   0.00   0.00    -0.04  -0.01  -0.02    -0.04  -0.01  -0.02
     2   8    -0.05  -0.00   0.00     0.04   0.01  -0.02    -0.04  -0.01   0.02
     3   1    -0.02   0.70  -0.07     0.60   0.10   0.35     0.60   0.11   0.36
     4   1     0.02  -0.70  -0.07    -0.60  -0.10   0.35     0.60   0.11  -0.36

 -------------------
 - Thermochemistry -
 -------------------
 Temperature   298.150 Kelvin.  Pressure   1.00000 Atm.
 Atom     1 has atomic number  8 and mass  15.99491
 Atom     2 has atomic number  8 and mass  15.99491
 Atom     3 has atomic number  1 and mass   1.00783
 Atom     4 has atomic number  1 and mass   1.00783
 Molecular mass:    34.00548 amu.
 Principal axes and moments of inertia in atomic units:
                           1         2         3
     Eigenvalues --     6.07629  68.35924  71.19469
           X            0.08537   0.99635   0.00000
           Y            0.99635  -0.08537   0.00000
           Z           -0.00000   0.00000   1.00000
 This molecule is an asymmetric top.
 Rotational symmetry number  2.
 Rotational temperatures (Kelvin)     14.25438     1.26704     1.21658
 Rotational constants (GHZ):         297.01351    26.40084    25.34938
 Zero-point vibrational energy      68913.5 (Joules/Mol)
                                   16.47073 (Kcal/Mol)
 Warning -- explicit consideration of   1 degrees of freedom as
           vibrations may cause significant error
 Vibrational temperatures:    501.90  1376.16  1914.84  2115.03  5332.51
          (Kelvin)           5336.34
 
 Zero-point correction=                           0.026248 (Hartree/Particle)
 Thermal correction to Energy=                    0.029502
 Thermal correction to Enthalpy=                  0.030446
 Thermal correction to Gibbs Free Energy=         0.004562
 Sum of electronic and zero-point Energies=           -151.506966
 Sum of electronic and thermal Energies=              -151.503712
 Sum of electronic and thermal Enthalpies=            -151.502767
 Sum of electronic and thermal Free Energies=         -151.528651
 
                     E (Thermal)             CV                S
                      KCal/Mol        Cal/Mol-Kelvin    Cal/Mol-Kelvin
 Total                   18.513              8.183             54.477
 Electronic               0.000              0.000              0.000
 Translational            0.889              2.981             36.503
 Rotational               0.889              2.981             16.654
 Vibrational             16.735              2.222              1.320
 Vibration     1          0.726              1.578              1.171
                       Q            Log10(Q)             Ln(Q)
 Total Bot       0.797163D-02         -2.098453         -4.831866
 Total V=0       0.943326D+10          9.974662         22.967508
 Vib (Bot)       0.105078D-11        -11.978489        -27.581491
 Vib (Bot)    1  0.529293D+00         -0.276303         -0.636212
 Vib (V=0)       0.124344D+01          0.094625          0.217882
 Vib (V=0)    1  0.122812D+01          0.089239          0.205481
 Electronic      0.100000D+01          0.000000          0.000000
 Translational   0.779433D+07          6.891779         15.868907
 Rotational      0.973326D+03          2.988258          6.880719
 
                                                               comment:
                                                             IR Spectrum
 
     33                                                                           1    1                                             
     77                                                                           4    3            9                    3           
     00                                                                           7    3            5                    4           
     96                                                                           0    1            6                    9           
 
     XX                                                                           X    X            X                    X           
     X                                                                                 X                                 X           
     X                                                                                 X                                 X           
                                                                                       X                                 X           
                                                                                       X                                 X           
                                                                                       X                                 X           
                                                                                       X                                 X           
                                                                                       X                                 X           
                                                                                       X                                 X           
                                                                                       X                                 X           
                                                                                       X                                 X           
                                                                                                                         X           
                                                                                                                         X           
                                                                                                                         X           
                                                                                                                         X           
                                                                                                                         X           
                                                                                                                         X           
                                                                                                                         X           
                                                                                                                         X           
                                                                                                                         X           
 
 Forces in standard orientation:
 -------------------------------------------------------------------
 Center     Atomic                   Forces (Hartrees/Bohr)
 Number     Number              X              Y              Z
 -------------------------------------------------------------------
      1        8          -0.000071307    0.000251818   -0.000006026
      2        8           0.000071307   -0.000251818   -0.000006026
      3        1           0.000011827   -0.000050112    0.000006026
      4        1          -0.000011827    0.000050112    0.000006026
 -------------------------------------------------------------------
 ***** Axes restored to original set *****
 Rotating derivatives, DoTrsp=F IDiff=-2 LEDeriv=    628 LFDPrp=       0 LDFDPr=       0.
 -------------------------------------------------------------------
 Center     Atomic                   Forces (Hartrees/Bohr)
 Number     Number              X              Y              Z
 -------------------------------------------------------------------
      1        8          -0.000236905   -0.000111233    0.000006026
      2        8           0.000236905    0.000111233    0.000006026
      3        1           0.000047528    0.000019803   -0.000006026
      4        1          -0.000047528   -0.000019803   -0.000006026
 -------------------------------------------------------------------
 Cartesian Forces:  Max     0.000236905 RMS     0.000108950
 Z-matrix is all fixed cartesians, so copy forces.
 Force constants in Cartesian coordinates: 
                1             2             3             4             5 
      1  0.345449D+00
      2 -0.837507D-01  0.394176D+00
      3  0.504130D-01 -0.215697D+00  0.145585D+00
      4 -0.246927D+00 -0.170247D-01 -0.210635D-01  0.345449D+00
      5 -0.170247D-01 -0.631687D-01 -0.222321D-02 -0.837507D-01  0.394176D+00
      6  0.210635D-01  0.222321D-02 -0.182948D-01 -0.504130D-01  0.215697D+00
      7 -0.628201D-01  0.665751D-01 -0.456742D-01 -0.357010D-01  0.342003D-01
      8  0.117530D+00 -0.342164D+00  0.209306D+00 -0.167547D-01  0.111563D-01
      9 -0.699262D-01  0.208312D+00 -0.128759D+00  0.155028D-02 -0.516217D-02
     10 -0.357010D-01  0.342003D-01  0.163247D-01 -0.628201D-01  0.665751D-01
     11 -0.167547D-01  0.111563D-01  0.861424D-02  0.117530D+00 -0.342164D+00
     12 -0.155028D-02  0.516217D-02  0.146835D-02  0.699262D-01 -0.208312D+00
                6             7             8             9            10 
      6  0.145585D+00
      7 -0.163247D-01  0.105262D+00
      8 -0.861424D-02 -0.100489D+00  0.331709D+00
      9  0.146835D-02  0.651874D-01 -0.201921D+00  0.126298D+00
     10  0.456742D-01 -0.674057D-02 -0.286032D-03  0.318853D-02  0.105262D+00
     11 -0.209306D+00 -0.286032D-03 -0.701391D-03 -0.122885D-02 -0.100489D+00
     12 -0.128759D+00 -0.318853D-02  0.122885D-02  0.991805D-03 -0.651874D-01
               11            12 
     11  0.331709D+00
     12  0.201921D+00  0.126298D+00
 Final forces over variables, Energy=-1.51533213D+02:
 -2.36905435D-04 2.36905435D-04 4.75276688D-05-4.75276688D-05
 -1.11232688D-04 1.11232688D-04 1.98031096D-05-1.98031096D-05
  6.02594082D-06 6.02594082D-06-6.02594082D-06-6.02594082D-06
 Leave Link  716 at Tue Sep 10 12:25:05 2019, MaxMem=  2684354560 cpu:         2.0
 (Enter /soft/gaussian/09-e.01/g09/l103.exe)

 GradGradGradGradGradGradGradGradGradGradGradGradGradGradGradGradGradGrad
 Berny optimization.
 Search for a local minimum.
 Step number   1 out of a maximum of    2
 All quantities printed in internal units (Hartrees-Bohrs-Radians)
 Second derivative matrix not updated -- analytic derivatives used.
 The second derivative matrix:
                          X1        Y1        Z1        X2        Y2
           X1           0.34545
           Y1          -0.08375   0.39418
           Z1           0.05041  -0.21570   0.14559
           X2          -0.24693  -0.01702  -0.02106   0.34545
           Y2          -0.01702  -0.06317  -0.00222  -0.08375   0.39418
           Z2           0.02106   0.00222  -0.01829  -0.05041   0.21570
           X3          -0.06282   0.06658  -0.04567  -0.03570   0.03420
           Y3           0.11753  -0.34216   0.20931  -0.01675   0.01116
           Z3          -0.06993   0.20831  -0.12876   0.00155  -0.00516
           X4          -0.03570   0.03420   0.01632  -0.06282   0.06658
           Y4          -0.01675   0.01116   0.00861   0.11753  -0.34216
           Z4          -0.00155   0.00516   0.00147   0.06993  -0.20831
                          Z2        X3        Y3        Z3        X4
           Z2           0.14559
           X3          -0.01632   0.10526
           Y3          -0.00861  -0.10049   0.33171
           Z3           0.00147   0.06519  -0.20192   0.12630
           X4           0.04567  -0.00674  -0.00029   0.00319   0.10526
           Y4          -0.20931  -0.00029  -0.00070  -0.00123  -0.10049
           Z4          -0.12876  -0.00319   0.00123   0.00099  -0.06519
                          Y4        Z4
           Y4           0.33171
           Z4           0.20192   0.12630
 ITU=  0
     Eigenvalues ---    0.00723   0.12221   0.12419   0.52756   0.81006
     Eigenvalues ---    0.89288
 Angle between quadratic step and forces=  66.21 degrees.
 ClnCor:  largest displacement from symmetrization is 1.34D-14 for atom     4.
 Linear search not attempted -- first point.
 ClnCor:  largest displacement from symmetrization is 3.14D-16 for atom     4.
 B after Tr=    -0.000000   -0.000000   -0.000376
         Rot=    1.000000    0.000000   -0.000000    0.000075 Ang=   0.01 deg.
 Variable       Old X    -DE/DX   Delta X   Delta X   Delta X     New X
                                 (Linear)    (Quad)   (Total)
    X1        1.35775  -0.00024   0.00000  -0.00042  -0.00038   1.35736
    Y1        0.22333  -0.00011   0.00000  -0.00050  -0.00071   0.22262
    Z1       -0.10271   0.00001   0.00000  -0.00041  -0.00079  -0.10350
    X2       -1.35775   0.00024   0.00000   0.00042   0.00038  -1.35736
    Y2       -0.22333   0.00011   0.00000   0.00050   0.00071  -0.22262
    Z2       -0.10271   0.00001   0.00000  -0.00041  -0.00079  -0.10350
    X3        1.91508   0.00005   0.00000   0.00024   0.00005   1.91513
    Y3       -1.26669   0.00002   0.00000   0.00072   0.00043  -1.26626
    Z3        0.82172  -0.00001   0.00000   0.00116   0.00079   0.82251
    X4       -1.91508  -0.00005   0.00000  -0.00024  -0.00005  -1.91513
    Y4        1.26669  -0.00002   0.00000  -0.00072  -0.00043   1.26626
    Z4        0.82172  -0.00001   0.00000   0.00116   0.00079   0.82251
         Item               Value     Threshold  Converged?
 Maximum Force            0.000237     0.000450     YES
 RMS     Force            0.000109     0.000300     YES
 Maximum Displacement     0.000788     0.001800     YES
 RMS     Displacement     0.000588     0.001200     YES
 Predicted change in Energy=-1.709139D-07
 Optimization completed.
    -- Stationary point found.
 GradGradGradGradGradGradGradGradGradGradGradGradGradGradGradGradGradGrad

 Leave Link  103 at Tue Sep 10 12:25:05 2019, MaxMem=  2684354560 cpu:         0.2
 (Enter /soft/gaussian/09-e.01/g09/l9999.exe)

 Test job not archived.
 1\1\GINC-B444\Freq\RB3LYP\6-31G(d)\H2O2\ELLIOTT\10-Sep-2019\0\\#P b3ly
 p/6-31g* # SCF=(xqc) # Freq=() # IOp(7/33=1) # int=ultrafine\\comment:
 \\0,1\O,0.718489,0.118182,-0.054354\O,-0.718489,-0.118182,-0.054354\H,
 1.013417,-0.670304,0.434834\H,-1.013417,0.670304,0.434834\\Version=ES6
 4L-G09RevE.01\State=1-A\HF=-151.5332134\RMSD=3.424e-09\RMSF=1.089e-04\
 ZeroPoint=0.0262478\Thermal=0.0295019\Dipole=0.,0.,0.6999971\DipoleDer
 iv=-0.2439038,-0.0081766,0.0325859,0.0093456,-0.1882306,-0.1396147,-0.
 0811534,-0.1524809,-0.2981263,-0.2439037,-0.0081766,-0.0325859,0.00934
 56,-0.1882306,0.1396147,0.0811534,0.1524809,-0.2981263,0.2439038,0.008
 1766,-0.0151944,-0.0093457,0.1882306,0.112836,-0.0074875,0.1120524,0.2
 981263,0.2439038,0.0081766,0.0151944,-0.0093456,0.1882306,-0.112836,0.
 0074875,-0.1120524,0.2981263\Polar=14.4622071,-1.4955695,8.8456769,0.,
 0.,6.2131135\PG=C02 [X(H2O2)]\NImag=0\\0.34544853,-0.08375071,0.394176
 15,0.05041297,-0.21569737,0.14558504,-0.24692742,-0.01702471,-0.021063
 48,0.34544853,-0.01702471,-0.06316873,-0.00222321,-0.08375071,0.394176
 15,0.02106348,0.00222321,-0.01829484,-0.05041297,0.21569737,0.14558504
 ,-0.06282014,0.06657514,-0.04567416,-0.03570097,0.03420029,-0.01632466
 ,0.10526167,0.11753014,-0.34216377,0.20930634,-0.01675471,0.01115635,-
 0.00861424,-0.10048940,0.33170881,-0.06992617,0.20831199,-0.12875855,0
 .00155028,-0.00516217,0.00146835,0.06518736,-0.20192096,0.12629840,-0.
 03570097,0.03420029,0.01632466,-0.06282014,0.06657514,0.04567416,-0.00
 674057,-0.00028603,0.00318853,0.10526167,-0.01675471,0.01115635,0.0086
 1424,0.11753014,-0.34216377,-0.20930634,-0.00028603,-0.00070139,-0.001
 22885,-0.10048940,0.33170881,-0.00155028,0.00516217,0.00146835,0.06992
 617,-0.20831199,-0.12875855,-0.00318853,0.00122885,0.00099181,-0.06518
 736,0.20192096,0.12629840\\0.00023691,0.00011123,-0.00000603,-0.000236
 91,-0.00011123,-0.00000603,-0.00004753,-0.00001980,0.00000603,0.000047
 53,0.00001980,0.00000603\\\@


 THE CHYMISTS ARE A STRANGE CLASS OF MORTALS IMPELLED
 BY AN ALMOST INSANE IMPULSE TO SEEK THEIR PLEASURE
 AMONG SMOKE AND VAPOR, SOOT AND FLAME, POISONS AND
 POVERTY; YET AMONG ALL THESE EVILS I SEEM TO LIVE
 SO SWEETLY, THAT I MAY DIE IF I WOULD CHANGE PLACES
 WITH THE PERSIAN KING.
   --  JOHANN JOACHIM BECHER, 1635-1682
 ACTA LABORATORII CHYMICA MONACENSIS, 1669
 Job cpu time:       0 days  0 hours  0 minutes 40.8 seconds.
 File lengths (MBytes):  RWF=    132 Int=      0 D2E=      0 Chk=      2 Scr=      2
 Normal termination of Gaussian 09 at Tue Sep 10 12:25:06 2019.
